132
Lattice="9.60909 0.0 0.0 0.0 16.643432 0.0 0.0 0.0 17.830265" Properties=species:S:1:pos:R:3:REF_forces:R:3 free_REF_energy=-218.52232692 REF_energy=-218.57193835 magmom=8.61e-05 REF_stress="0.0005285996493801791 -0.00015074492840833246 0.0019641405068242025 -0.00015074492840833246 -0.0014467630908523617 0.0021513233655094414 0.0019641405068242025 0.0021513233655094414 -0.004062535874946154" pbc="T T T"
Mg       9.37966000       1.41759000       0.93977000       0.58088900       0.35153000       0.15472900
Mg       3.19774000       1.55841000       1.24796000       0.02982700       0.28483100      -0.59956700
Mg       6.37822000       1.57569000       0.80758000      -0.12377500      -0.24055700       0.44080700
Mg       1.71911000       4.26512000       1.25476000      -0.36492200       0.04378800      -0.20157000
Mg       4.74978000       4.47328000       0.92450000       0.31040500      -0.42806100       0.23969300
Mg       8.16443000       4.23853000       1.07608000      -0.12751000       0.26402700       0.27550500
Mg       9.57132000       7.29096000       1.25180000       0.05994900      -0.21929100      -0.33743200
Mg       3.15886000       7.02826000       0.73317000      -0.07904500       0.48604500       0.57478100
Mg       6.20869000       7.35746000       0.97911000       0.50075800      -0.31409400      -0.05908800
Mg       1.72530000      10.07577000       1.32545000       0.04521600      -0.30661900       0.04037600
Mg       5.02150000      10.07620000       1.26924000      -0.28545300       0.17429200      -0.10025500
Mg       8.14039000      10.27974000       1.35764000      -0.03499300      -0.29542600      -0.78368000
Mg       0.14796000      12.88805000       1.12318000       0.06839500       0.08496600       0.27913300
Mg       3.19391000      12.79267000       1.58524000       0.11010300       0.07230500      -0.41224300
Mg       6.48220000      12.90474000       1.25728000      -0.05818400      -0.10615600      -0.22821200
Mg       1.77994000      15.62141000       1.13341000      -0.43128600      -0.28544700      -0.07189100
Mg       4.74669000      15.51074000       1.35328000       0.41735400      -0.10752400      -0.21949400
Mg       8.21950000      15.44035000       1.27996000      -0.32929900      -0.15263400      -0.27562900
Mg       0.11729000      16.49828000       3.82133000       0.11611400       0.10622200      -0.25328600
Mg       3.22103000      16.55345000       3.68457000       0.27186200      -0.25040000       0.42178900
Mg       6.74205000      16.37336000       3.60510000      -0.64081600       0.46923300       0.24395100
Mg       1.75249000       2.66999000       3.85557000       0.03550000      -0.09335200      -0.17755000
Mg       4.86677000       2.44965000       3.60210000       0.37457500       0.27001000       0.12788100
Mg       8.14805000       2.55180000       3.70253000       0.04093700       0.18709000      -0.26133200
Mg       0.17388000       5.37469000       3.91012000      -0.15496400       0.01130200      -0.24318700
Mg       3.42105000       5.41087000       3.60141000      -0.29202000      -0.03568700       0.00344200
Mg       6.51462000       5.26719000       3.69575000       0.28885900       0.12554400      -0.35820800
Mg       1.45263000       8.16546000       3.88310000       0.57839300      -0.01540600      -0.07595100
Mg       4.90760000       8.01391000       3.75674000      -0.16389000       0.28651900      -0.07444400
Mg       8.02349000       8.23741000       3.66453000      -0.03602500      -0.40767200       0.11039300
Mg       0.02913000      10.88837000       3.79804000       0.37048900       0.51493600       0.29149100
Mg       3.35521000      10.93578000       3.95711000      -0.06422800      -0.20059300      -0.08615900
Mg       6.53983000      10.82522000       3.85768000      -0.13347300       0.21514000       0.20339400
Mg       1.67092000      13.84352000       4.04421000       0.24785500      -0.20358400      -0.59099400
Mg       5.12289000      13.50327000       3.82148000      -0.49973600       0.37456700       0.14975300
Mg       8.02055000      13.75813000       3.99777000       0.63746900      -0.27929300      -0.39520800
Mg       0.23695000       1.82488000       6.24738000       0.18661900       0.10233400       0.34060300
Mg       3.56628000       1.72628000       6.36877000       0.06856500       0.13049900       0.13776900
Mg       6.88892000       1.78266000       6.25029000      -0.88042400      -0.06031400      -0.19304900
Mg       1.98857000       4.54032000       6.34447000      -0.42990700      -0.16238100       0.16675400
Mg       5.00006000       4.61108000       6.11047000       0.11984700      -0.51274400       0.46394000
Mg       8.15073000       4.51326000       6.36917000       0.16136600       0.17031200      -0.10835200
Mg       0.18064000       7.22487000       6.53561000       0.06198400      -0.03562300      -0.11995800
Mg       3.44143000       7.15022000       6.36410000      -0.14261100       0.35554400      -0.04711700
Mg       6.64010000       7.20382000       6.24151000      -0.00692500       0.05603300       0.26881700
Mg       1.83490000      10.10214000       6.39647000      -0.07564100      -0.08512500      -0.03114400
Mg       5.00323000       9.81611000       6.43140000       0.03544600       0.38140900      -0.07305000
Mg       8.25330000       9.88517000       6.33497000      -0.04493700       0.31536300       0.15011500
Mg       0.30576000      13.09113000       6.43341000      -0.23946000      -0.34335100       0.24856300
Mg       3.60490000      12.87822000       6.42829000      -0.28516200      -0.16195500       0.09022600
Mg       6.76466000      12.91569000       6.47110000      -0.17150800      -0.38733500       0.12502400
Mg       1.82097000      15.87797000       6.23481000       0.13065800      -0.30408800       0.56431300
Mg       5.11818000      15.45771000       6.19309000      -0.20297500       0.51855800       0.11035000
Mg       8.21097000      15.73503000       6.37831000       0.08312700      -0.19349200      -0.10002600
Mg       0.00164000      16.49698000       8.93794000       0.54881800       0.37306700       0.11924500
Mg       3.28738000       0.08544000       9.07244000       0.09301600      -0.08970700      -0.15051900
Mg       6.55078000       0.09340000       8.73058000      -0.30355400      -0.12542900       0.24012300
Mg       1.69051000       2.84019000       9.15897000       0.11737900      -0.26871500      -0.13378500
Mg       5.20706000       2.76325000       9.19095000      -0.34602900       0.11299100      -0.37363700
Mg       8.17568000       2.76798000       8.73791000       0.24166100      -0.06694100       0.60315900
Mg       0.08777000       5.47778000       9.13337000       0.27554600       0.05930500      -0.12337300
Mg       3.50111000       5.34798000       8.95746000      -0.08716800       0.19428400       0.08418600
Mg       6.61358000       5.60857000       9.12185000       0.07562500      -0.10651700      -0.27746600
Mg       1.95471000       8.23232000       8.95329000      -0.25893700      -0.01708700       0.08925900
Mg       4.95580000       8.31043000       9.10722000       0.38531900      -0.20183600      -0.17818700
Mg       8.36629000       8.36732000       9.11247000      -0.10630800      -0.10547800      -0.27519500
Mg       0.34645000      11.11461000       8.82866000      -0.32098700       0.07823400       0.30400100
Mg       3.43408000      11.08275000       8.98678000       0.16394700       0.01820700       0.08553200
Mg       6.68592000      11.10832000       8.90478000      -0.06418300      -0.01667600       0.19662200
Mg       1.92610000      13.84017000       8.97934000      -0.31358800       0.16243300      -0.04799200
Mg       5.00061000      13.96379000       9.20715000      -0.11361500      -0.06409700      -0.43178100
Mg       7.96036000      14.09329000       9.11535000       0.34496900      -0.59307600      -0.06198700
Li       1.64964000       0.79840000      11.45630000      -0.08114000       0.02704700       0.00599400
Li       5.11313000       0.93800000      11.35907000      -0.29092600      -0.17871300       0.09562000
Li       7.91526000       0.96971000      11.34391000       0.40602100       0.01358900      -0.21815900
Li       1.86369000       6.44018000      11.53149000       0.07585500       0.04152900      -0.22717900
Li       5.11460000       6.43399000      11.46240000      -0.21622200      -0.09913000       0.01938700
Li       8.21151000       6.56582000      11.46769000       0.06184400       0.05852000       0.19134900
Li       0.30275000       9.51133000      11.45728000       0.07454400      -0.19678600       0.12418900
Li       3.51284000       9.24684000      11.36011000      -0.02498600       0.10646200       0.27676100
Li       6.77718000       9.27837000      11.29041000      -0.03185900       0.21928400       0.01928100
Li       1.88695000      12.05330000      11.49604000      -0.01112600      -0.07994900       0.00370500
Li       5.01492000      12.25256000      11.57962000       0.15694300      -0.27119300       0.00386900
Li       8.38918000      12.05757000      11.59642000      -0.26553600       0.04473900      -0.38751100
Li       0.02387000      14.52772000      11.54732000       0.31098700       0.31087800       0.00726100
Li       3.25984000      14.64537000      11.39606000       0.03590900       0.44599800       0.13334000
Li       6.50854000      14.93675000      11.56617000      -0.04418400      -0.03261100      -0.05219600
Li       9.60211000       1.15624000      13.93251000       0.22566800      -0.29637900      -0.27317100
Li       3.48980000       1.19323000      13.73374000       0.06339300      -0.00192600       0.04821200
Li       6.71206000       1.05453000      13.69558000      -0.11005200      -0.10308400       0.18431800
Li       0.01991000       3.77541000      11.66883000       0.07965500      -0.14082200      -0.36620900
Li       3.49253000       3.54124000      11.57290000      -0.06517000       0.10054000      -0.19422300
Li       6.67050000       3.72730000      11.67843000       0.02564000       0.03757900      -0.32430500
Li       9.16576000       8.08050000      14.09753000       0.09203600       0.07068600      -0.24857500
Li       2.99818000       8.04752000      13.97027000      -0.26293300       0.08135800       0.06787700
Li       5.86464000       8.21745000      13.45312000      -0.05818400       0.08666900       0.45545600
Li       7.85075000      10.62718000      13.84333000       0.00283500      -0.38601700       0.12855500
Li       1.79387000      10.56666000      14.08572000      -0.27317200       0.01968700       0.04005800
Li       4.46603000      10.72012000      14.06675000       0.20912400       0.01022900       0.02745900
Li       9.49513000      12.70402000      14.16093000       0.38664600       0.24099200       0.03563600
Li       3.15139000      13.44202000      13.86192000       0.00519400      -0.46687700       0.19409600
Li       6.47275000      12.90529000      14.21413000      -0.33064800       0.20944700      -0.25090500
Li       1.84803000       3.30347000      13.81004000       0.02410100      -0.16089500       0.19846900
Li       5.21278000       3.42251000      13.94035000       0.03476100       0.00581500       0.17308900
Li       8.31709000       3.32552000      14.02969000      -0.18460400       0.37454900       0.18850300
Li       0.67347000       5.61063000      13.83011000      -0.25009700       0.13429500       0.26807700
Li       3.59870000       5.58581000      13.90895000       0.16553800      -0.15750500       0.03498200
Li       6.96955000       5.80421000      13.95290000       0.06871900      -0.01692100       0.06376800
Li       1.15317000       8.57213000      16.50044000       0.05327700      -0.19677800       0.06071700
Li       4.24648000       8.66118000      16.51283000       0.19609700      -0.14727700      -0.17359400
Li       7.37755000       8.60564000      16.15719000       0.01203500      -0.12505300       0.28830900
Li       1.79081000      13.82907000      16.44948000      -0.16544700      -0.27311800       0.10323700
Li       4.42891000      13.37108000      16.66310000       0.39786800       0.07027100       0.00763300
Li       7.92964000      13.10771000      16.56851000       0.20196000       0.32845400       0.16084300
Li       1.87035000      15.75758000      14.07790000      -0.31954100      -0.14283500       0.04321800
Li       4.94563000      15.46871000      14.03976000       0.00213800      -0.03473000      -0.13766700
Li       8.05334000      15.06248000      13.88435000       0.14653300       0.34541300       0.17414000
Li       8.18880000       1.30642000      16.16816000      -0.30220300      -0.18744500       0.19437200
Li       1.59472000       1.25689000      16.34728000      -0.03753400      -0.32588600       0.05629600
Li       5.19603000       1.36725000      16.06596000      -0.20547100      -0.08311400      -0.02864600
Li       0.27314000       3.52394000      16.40140000      -0.03507300      -0.06069900       0.11804900
Li       3.30945000       3.19919000      16.34983000       0.17638100       0.31990600       0.11647300
Li       6.67910000       3.45394000      16.59648000       0.03051400       0.32201600      -0.25891900
Li       8.45140000       5.71866000      16.50226000      -0.02540100       0.57252100      -0.08232900
Li       1.98748000       5.70754000      16.51119000      -0.06122100       0.13564100      -0.30331900
Li       5.18914000       5.75987000      16.34393000      -0.03412600       0.36775800      -0.21106100
Li       0.37099000      11.22765000      16.72421000      -0.27270200      -0.24326500      -0.26317200
Li       3.15966000      11.06189000      16.93527000      -0.04535500       0.02789900      -0.26290500
Li       6.30710000      11.13857000      16.33066000      -0.19782800      -0.28299900       0.38966200
Li       9.41785000      15.58048000      16.51591000       0.09449500       0.02052100      -0.04081000
Li       3.46505000      16.04249000      16.61212000      -0.13715900       0.08865700      -0.03988200
Li       6.19656000      15.51165000      16.48375000       0.55788700      -0.05409700       0.22875900
132
Lattice="9.60909 0.0 0.0 0.0 16.643432 0.0 0.0 0.0 17.830265" Properties=species:S:1:pos:R:3:REF_forces:R:3 free_REF_energy=-217.82790276 REF_energy=-217.86982303 magmom=0.0003713 REF_stress="0.0022309962295013414 0.001719897771710139 1.4761169082713908e-05 0.001719897771710139 -0.0029682432874506715 0.002477847915430024 1.4761169082713908e-05 0.002477847915430024 -0.005397132805297268" pbc="T T T"
Mg       0.04494000       1.96146000       1.14474000       0.06636100      -0.58331000      -0.03394300
Mg       3.28241000       1.83676000       0.95553000       0.04286100       0.11194200      -0.03009700
Mg       6.43569000       1.92815000       1.38577000       0.01552100      -0.04199900      -0.34435400
Mg       1.84736000       4.72285000       1.29131000      -0.11829100      -0.50384600      -0.33507200
Mg       5.03280000       4.62632000       0.85131000      -0.35845300      -0.24302400       0.21329700
Mg       8.21476000       4.47196000       1.29775000       0.01680700       0.07333900      -0.19706400
Mg       0.23467000       7.08067000       1.42631000      -0.31966000       0.65523700      -0.45620200
Mg       3.18971000       7.34919000       1.24612000       0.75464900      -0.19002600       0.16170500
Mg       6.63945000       6.98749000       1.12189000       0.02622300       0.82965900      -0.14643400
Mg       2.04829000      10.00776000       1.09983000      -0.52824700       0.17914300      -0.22712100
Mg       5.01555000      10.06206000       1.25680000       0.00396500      -0.33138500      -0.17376500
Mg       8.22449000       9.97865000       1.18940000       0.16660500      -0.25017300      -0.42283800
Mg       0.34591000      12.68211000       1.18066000      -0.41051400      -0.08119100       0.07854800
Mg       3.31828000      12.84181000       1.19358000       0.19480100       0.18109100       0.27335100
Mg       6.64572000      12.60591000       1.24616000      -0.02440000       0.69455800       0.07322600
Mg       1.48775000      15.49638000       1.10741000       0.08064700       0.31741100      -0.17025000
Mg       4.81522000      15.67186000       0.97480000      -0.34635200      -0.10394400       0.05681000
Mg       7.70213000      15.82077000       1.19186000       0.68074300      -0.41976400      -0.15854100
Mg       0.24652000      16.48056000       3.65190000      -0.38623100       0.52571600       0.24812400
Mg       3.29286000       0.07746000       3.61348000       0.26312800      -0.02598400      -0.00827000
Mg       6.55341000       0.05253000       3.83095000      -0.10003100      -0.30626300      -0.00729500
Mg       1.76366000       2.74189000       3.56278000      -0.22947800      -0.00414600       0.38222800
Mg       4.76576000       2.88748000       3.77877000       0.13678900      -0.45188800      -0.22528800
Mg       8.29249000       2.57842000       3.95901000      -0.37754000       0.22597200      -0.40396600
Mg       0.03131000       5.39666000       3.92285000       0.05130700       0.05160900       0.08694500
Mg       3.22155000       5.54390000       3.78169000       0.07412000       0.06706600       0.14579600
Mg       6.45274000       5.29144000       3.65865000       0.09128700       0.26824300       0.29421000
Mg       1.79910000       8.38696000       3.71854000      -0.14480600      -0.20086900       0.29995100
Mg       4.89557000       8.13099000       3.93518000       0.35468300       0.30208700      -0.58986500
Mg       8.04292000       8.09408000       3.56531000       0.02450600       0.15519700       0.71932600
Mg       0.21924000      10.93105000       3.72229000      -0.22040900       0.30527100      -0.03976300
Mg       3.35572000      11.12615000       3.82846000       0.14367000      -0.07247600      -0.25672700
Mg       6.62116000      10.97933000       3.63866000      -0.05470300       0.00764700       0.53835700
Mg       1.96563000      14.03659000       3.84445000      -0.23348400      -0.39108000      -0.12967100
Mg       5.09809000      13.95644000       3.66168000      -0.00319700      -0.15100900      -0.00082900
Mg       8.41293000      13.87241000       3.74316000      -0.37985400      -0.15634100      -0.01483900
Mg       0.10132000       2.03585000       6.40709000       0.03288100      -0.31591700       0.12997500
Mg       3.14097000       1.82896000       6.21410000       0.33035600       0.15620400       0.28388900
Mg       6.49728000       1.62939000       6.27642000      -0.21284300       0.47289500       0.43976900
Mg       1.67765000       4.66616000       6.38003000       0.05879200      -0.24653300      -0.01156100
Mg       4.84658000       4.50488000       6.24179000      -0.07069300       0.25550300       0.34572500
Mg       7.86304000       4.58456000       6.45710000       0.28345800       0.20843400      -0.05280100
Mg       0.46188000       7.35521000       6.41352000      -0.74626400       0.18717900      -0.11812700
Mg       3.42979000       7.53482000       6.29917000      -0.32361500      -0.03970000       0.27101500
Mg       6.39032000       7.39072000       6.52110000       0.43930400      -0.19779700      -0.36742400
Mg       1.60371000      10.33022000       6.26328000       0.18544800      -0.32114800       0.18234000
Mg       4.99430000      10.28073000       6.34014000      -0.13716400      -0.18110600      -0.06767300
Mg       8.03458000      10.17307000       6.21736000       0.19359600      -0.26174800       0.16417300
Mg       0.03245000      12.99465000       6.46417000       0.18848600      -0.07521300      -0.35685200
Mg       3.30914000      12.94798000       6.21383000       0.02447200       0.10275600       0.47268700
Mg       6.52229000      12.88736000       6.25653000      -0.07994900       0.22280900       0.10123800
Mg       1.60670000      15.92203000       6.40494000      -0.19762000      -0.43936900      -0.00847500
Mg       4.67375000      15.66650000       6.28316000       0.29138800       0.05478300       0.03585200
Mg       8.04927000      15.69497000       6.68315000       0.07869100      -0.03133100      -0.82262800
Mg       9.40926000       0.26720000       9.07202000       0.49213400      -0.39009900       0.05511800
Mg       3.12521000      16.61408000       8.95386000      -0.02490400       0.20236200       0.17758500
Mg       6.33017000      16.52408000       8.95404000       0.05159800       0.59396700       0.01868700
Mg       1.70994000       2.89988000       9.11480000       0.06819900       0.05168600      -0.33266200
Mg       4.91235000       2.88769000       8.99606000       0.10607100      -0.14875000      -0.48660300
Mg       8.22475000       2.90476000       8.96066000      -0.52507500       0.05707900       0.33055500
Mg       0.03701000       5.59149000       9.09701000      -0.01193200       0.12597500      -0.15034500
Mg       3.20271000       5.78550000       8.78739000       0.26616200      -0.15082000       0.14971800
Mg       6.39392000       5.66892000       9.24249000       0.05602800      -0.31853800      -0.31647000
Mg       1.74436000       8.37119000       9.00246000      -0.07206300       0.21661800      -0.20083400
Mg       5.00093000       8.52109000       8.95389000      -0.32809800      -0.14281300      -0.06878000
Mg       8.00810000       8.19813000       9.00347000       0.34121700       0.29826600       0.05486000
Mg       9.51791000      10.93275000       8.91372000       0.11967000       0.21788000       0.00272200
Mg       3.25673000      11.08180000       8.73845000      -0.07030200       0.32955600       0.21754800
Mg       6.34275000      11.15491000       9.25688000       0.16408900       0.34484200      -0.59839600
Mg       1.45479000      13.77243000       9.05077000       0.32577000       0.25069900      -0.02707800
Mg       4.84997000      14.02352000       9.09795000      -0.32083300      -0.30663400      -0.34873600
Mg       8.02445000      13.75049000       8.91256000      -0.17488900       0.09856900       0.53992500
Li       1.80331000       1.51668000      11.54504000      -0.03745800      -0.29107500       0.01324300
Li       4.81546000       1.19493000      11.26391000       0.09574400      -0.05467600       0.24712300
Li       8.29743000       1.14547000      11.75811000      -0.20708400       0.18375100      -0.17526000
Li       1.63389000       6.72403000      11.33763000       0.21608400       0.02423000       0.26210500
Li       5.09375000       6.97061000      11.34117000      -0.17659400       0.06741700       0.20941300
Li       8.12795000       6.77566000      11.86633000      -0.09835200       0.03683900      -0.40711700
Li       0.34488000       9.48735000      11.36207000      -0.20617100      -0.24140500       0.15494100
Li       3.35778000       9.55119000      11.26734000       0.07527800      -0.12101900       0.01094500
Li       6.67945000       9.58918000      11.34024000       0.07094700      -0.28608000       0.33198400
Li       1.88437000      12.02719000      11.36610000       0.05859700       0.17776800       0.12808600
Li       5.01817000      12.58190000      11.46853000      -0.00901500      -0.29226500       0.22354800
Li       8.60287000      12.08325000      11.66693000      -0.31936700       0.22917500      -0.23926100
Li       0.15911000      15.24626000      11.45352000      -0.07931200      -0.22476200       0.02045400
Li       3.07542000      15.00495000      11.63995000       0.16625900       0.04985900      -0.19619000
Li       6.51015000      15.33031000      11.53544000       0.00374000      -0.23799800       0.09425300
Li       0.64443000       0.35407000      13.89671000       0.17180300      -0.31257700       0.11131500
Li       3.79651000       0.43787000      13.84343000      -0.23660800       0.35860900       0.09569100
Li       6.68216000       0.78555000      14.22961000       0.29086400      -0.45218000      -0.35158300
Li       0.26322000       4.20243000      11.67858000      -0.07938500      -0.29896900      -0.01032900
Li       3.56108000       4.08862000      11.12266000      -0.15385000       0.10125400       0.39600300
Li       6.47499000       3.84394000      11.53558000       0.21080400       0.04428400      -0.08956400
Li       9.48110000       7.83983000      13.98658000      -0.06818300       0.20958400       0.02714500
Li       2.76107000       7.81248000      13.95948000       0.30603200      -0.21257900      -0.00471300
Li       6.07336000       7.46387000      14.22407000       0.08220600       0.21741200      -0.18275800
Li       7.50149000       9.93680000      13.95274000       0.31698600       0.04645400      -0.02668500
Li       1.69535000      10.10627000      13.79267000      -0.31809600       0.38208200      -0.02094600
Li       4.69499000       9.90296000      13.57990000       0.17788800       0.00286300      -0.00383700
Li       9.17873000      12.28178000      14.30986000       0.22101800      -0.03824300       0.02729600
Li       3.40203000      12.31617000      14.05060000      -0.06754300       0.05476800       0.06367000
Li       6.22141000      12.54411000      14.08407000       0.21413500      -0.25714000       0.04382400
Li       2.46232000       3.02572000      14.08596000       0.17172600      -0.02042300      -0.12774400
Li       6.15159000       3.06328000      14.09387000      -0.41598700       0.39402000      -0.27929000
Li       9.08764000       2.57731000      14.11395000       0.06478900       0.32217000       0.07177700
Li       1.15682000       5.57336000      14.09040000       0.13039600      -0.32887200       0.07693200
Li       4.37521000       5.51900000      13.57989000      -0.07350800      -0.39115200       0.24089300
Li       7.89613000       5.14562000      14.00818000       0.00324600       0.08944700       0.06585700
Li       1.85573000       7.83574000      16.73822000      -0.50614800      -0.08158500      -0.22205900
Li       4.74084000       7.61199000      16.77791000       0.12723900       0.08987900      -0.03792100
Li       7.99638000       7.96810000      16.28263000      -0.03090700       0.06503500       0.36626400
Li       1.92898000      12.09363000      16.59207000      -0.07025000      -0.05460100      -0.12717800
Li       4.92656000      12.40900000      16.84433000      -0.23981500      -0.35794300      -0.34880700
Li       7.92221000      12.06053000      16.77957000       0.26656400      -0.01148900      -0.23080100
Li       1.52070000      14.32583000      13.95032000       0.02203900       0.04195300       0.06478600
Li       4.88795000      14.85780000      14.01107000      -0.07322100      -0.10752700       0.02533500
Li       7.90302000      15.01312000      14.11365000       0.27351300      -0.07379600      -0.08562400
Li       8.75233000       0.38123000      16.50211000      -0.00414300       0.01305000      -0.02327100
Li       2.23376000       0.41291000      16.44350000      -0.06712000       0.16852100      -0.11637500
Li       5.49385000       0.66191000      16.43673000       0.00976200      -0.53520000       0.42176300
Li       1.32971000       3.07064000      16.72243000      -0.16263700       0.07402900      -0.24255800
Li       4.68352000       2.93079000      16.20540000      -0.38650100       0.31694600       0.19443300
Li       7.65103000       3.06644000      16.44704000       0.08493400      -0.05036600       0.36618500
Li       9.40528000       5.78053000      16.58085000       0.14373400      -0.37676400       0.12283200
Li       3.14107000       5.30453000      16.51695000      -0.02185900       0.12284800      -0.19656500
Li       6.33370000       5.66185000      16.32650000       0.12618700      -0.46583400      -0.03325700
Li       0.16859000      10.05610000      16.21587000       0.01365000      -0.04237200       0.18376000
Li       3.50610000       9.78713000      16.08470000      -0.07034900       0.34763300       0.18186000
Li       6.29830000      10.02614000      16.44475000       0.04749300      -0.03103400       0.02362900
Li       0.14044000      14.25092000      16.56442000      -0.15567300       0.27133600      -0.05257900
Li       3.16224000      14.62024000      16.47794000       0.15354700      -0.05894700      -0.09071800
Li       6.37531000      14.39054000      16.41839000       0.26334400       0.48264200       0.21803100
132
Lattice="9.60909 0.0 0.0 0.0 16.643432 0.0 0.0 0.0 17.830265" Properties=species:S:1:pos:R:3:REF_forces:R:3 free_REF_energy=-218.58639079 REF_energy=-218.62550825 magmom=0.0003631 REF_stress="0.0015458283236983808 -0.00010515694575288111 0.0012995883056640344 -0.00010515694575288111 -0.00254993110432485 0.0018043641147107168 0.0012995883056640344 0.0018043641147107168 -0.004095060379001132" pbc="T T T"
Mg       9.35572000       1.82623000       1.21817000       0.27694300       0.31101700      -0.19167300
Mg       2.97569000       1.97016000       1.17105000       0.12994200      -0.08745300      -0.08107100
Mg       6.24093000       2.01478000       1.27366000       0.33025600      -0.19974600      -0.31865100
Mg       1.91879000       4.86501000       1.39029000      -0.69563300       0.00309600      -0.19498100
Mg       4.81998000       4.72056000       1.42878000       0.08333800      -0.04218800      -0.10134700
Mg       7.89273000       4.65468000       1.22060000       0.31709600       0.17032200      -0.07515800
Mg       9.57426000       7.75712000       1.17912000       0.34879000      -0.85260800      -0.13837000