132
Lattice="9.60909 0.0 0.0 0.0 16.643432 0.0 0.0 0.0 17.830265" Properties=species:S:1:pos:R:3:REF_forces:R:3 free_REF_energy=-217.72992033 REF_energy=-217.77666458 magmom=0.000371 REF_stress="0.0008229117707020781 0.0005910209821481375 -0.00033229170435289883 0.0005910209821481375 -0.002638903816914316 0.0007469276386035754 -0.00033229170435289883 0.0007469276386035754 -0.0035613239676103507" pbc="T T T"
Mg       0.33252000       1.64498000       0.86628000      -0.05915900      -0.01915900      -0.05031400
Mg       3.40761000       1.23263000       1.37328000       0.04895900       0.79642800      -0.55956100
Mg       6.74744000       1.80973000       1.24210000      -0.22326000      -0.50246900      -0.58607700
Mg       2.07811000       4.26214000       0.94716000      -0.26612000       0.10523300       0.04904900
Mg       5.13031000       4.29428000       0.84415000      -0.18855500       0.08801400       0.27424400
Mg       8.18734000       4.51343000       1.15751000       0.42498600       0.12707900      -0.10220100
Mg       0.31030000       7.43190000       1.56681000       0.01178000      -0.54999400      -0.88332000
Mg       3.44918000       7.16937000       1.27445000      -0.00263200      -0.10807100      -0.16205600
Mg       6.73659000       7.48437000       1.43459000       0.05852600      -0.48152000      -0.32015900
Mg       1.70043000      10.05643000       1.39332000       0.22949800       0.02881100      -0.29745000
Mg       5.04784000       9.75835000       0.83898000      -0.38540200       0.22335200       0.37011700
Mg       8.07857000      10.18999000       1.19705000       0.18766500      -0.01206600      -0.37388100
Mg       0.17568000      12.85107000       1.24883000       0.14613300      -0.28986600       0.00832400
Mg       3.72207000      12.57599000       1.23286000      -0.34926400       0.01969000      -0.05233800
Mg       6.76742000      13.13726000       1.04502000      -0.36269200      -0.45703500       0.22443500
Mg       1.73567000      15.38607000       1.17295000       0.25459000       0.00361000      -0.10111400
Mg       4.79360000      15.44554000       0.78850000       0.66528100      -0.06330500       0.57896500
Mg       8.30994000      15.62340000       1.23818000      -0.15074000       0.29222700      -0.14325500
Mg       0.33797000      16.38638000       3.72288000      -0.49019100       0.11653600       0.16116800
Mg       3.25880000      16.47043000       3.91302000       0.38604500      -0.03098500       0.01514900
Mg       6.61663000      16.48837000       3.85342000      -0.12002700      -0.04012800      -0.47976000
Mg       1.78744000       2.55897000       3.72833000       0.07326000       0.05174100      -0.07622700
Mg       4.88935000       2.46441000       3.70930000       0.32972000       0.32466600       0.01217900
Mg       8.39924000       2.46614000       3.48354000      -0.14868900       0.19730000       0.60081000
Mg       0.39422000       5.23422000       3.96250000      -0.44230300       0.32369300      -0.54453300
Mg       3.49672000       5.35403000       3.73152000      -0.23996900      -0.05029200      -0.15558300
Mg       6.55378000       5.32202000       3.61503000       0.08986300      -0.07856700       0.01033000
Mg       1.89290000       8.11169000       3.93608000       0.08642500       0.03821200       0.07689400
Mg       4.92623000       8.24062000       3.81603000       0.16841900       0.05133800      -0.04114500
Mg       8.42536000       8.05587000       3.82384000      -0.73043400       0.02024600       0.38272200
Mg       9.54669000      10.76592000       3.84905000       0.53809600       0.40429700      -0.14468500
Mg       3.21422000      10.94093000       3.97483000       0.07009900       0.16703000      -0.27494500
Mg       6.28956000      11.03682000       3.59765000       0.04308100      -0.04178700       0.02893000
Mg       1.89994000      13.87038000       4.04194000      -0.23731900      -0.71875400      -0.43364400
Mg       4.94015000      13.87013000       3.83925000       0.11413100      -0.22956200      -0.20303200
Mg       8.12464000      13.55564000       3.86569000       0.13395100       0.22740100      -0.15912600
Mg       0.16077000       1.51272000       6.36484000       0.09077300       0.18302100      -0.25893800
Mg       3.30305000       1.80463000       6.27709000       0.11095500      -0.27131600       0.28456800
Mg       6.69461000       1.75920000       6.21637000      -0.42771300      -0.20953900       0.04512200
Mg       1.71672000       4.41610000       6.35621000      -0.01141800       0.04724300       0.33393800
Mg       4.85137000       4.52633000       6.19369000       0.07836400      -0.40956900       0.05579800
Mg       7.92184000       4.42256000       6.18474000       0.58373300       0.13791100      -0.00007300
Mg       0.21089000       7.42143000       6.36113000      -0.09736500      -0.35860200       0.25648600
Mg       3.58428000       7.21427000       6.46085000      -0.59126800      -0.11860900       0.15744800
Mg       6.50572000       7.18095000       6.16439000       0.40784000       0.34661300       0.08968700
Mg       1.84210000       9.99610000       6.48816000      -0.49534300      -0.02425300       0.17447800
Mg       4.78686000       9.99199000       6.52203000       0.51643900      -0.12899500      -0.29991200
Mg       7.92107000      10.17181000       6.14481000       0.05977800      -0.35516600       0.51844400
Mg       0.17507000      12.71362000       6.35540000      -0.03918900       0.03895400       0.30970200
Mg       3.46442000      12.65687000       6.53319000      -0.22124800       0.30642100       0.15157100
Mg       6.53227000      12.88822000       6.41282000      -0.01297200      -0.15818000       0.08006100
Mg       1.80231000      15.39256000       6.57535000      -0.35967900       0.09572300      -0.48600400
Mg       4.87378000      15.58794000       6.34120000       0.24347400       0.06949200       0.02470300
Mg       7.98517000      15.53675000       6.27051000       0.49957300      -0.05770400       0.37724500
Mg       0.22492000      16.40067000       8.94049000      -0.40553300       0.10478500       0.21509100
Mg       3.31470000      16.33691000       8.74826000       0.32708500       0.60709400       0.70463900
Mg       6.59587000      16.61424000       8.98578000       0.10029400      -0.16993700      -0.21473300
Mg       1.70483000       2.42762000       9.03266000       0.01551500       0.02374400      -0.04894500
Mg       5.00112000       2.70715000       8.81358000      -0.10273700      -0.20613300       0.04352500
Mg       8.17882000       2.67452000       8.74012000      -0.05989100      -0.01081300       0.30362900
Mg       9.52144000       5.41719000       8.86795000       0.07908800       0.01471900      -0.01987700
Mg       3.12554000       5.08169000       9.13466000       0.06083500       0.38741500      -0.17735800
Mg       6.30151000       5.49823000       8.58014000       0.20163800      -0.12774100       0.54190300
Mg       1.78852000       7.94777000       9.04993000      -0.04550800       0.26899000      -0.09447700
Mg       5.06460000       8.18419000       9.18357000      -0.13968300      -0.16053100       0.13519500
Mg       8.10497000       8.14750000       8.92697000       0.09634200       0.10453000       0.06765000
Mg       0.04919000      10.89702000       9.26020000       0.03171800      -0.11950900      -0.08055700
Mg       3.36570000      10.63942000       9.18937000      -0.28496400       0.50982600       0.13665500
Mg       6.40614000      10.93787000       8.90156000       0.37167100       0.20733500       0.08778200
Mg       1.72375000      13.77737000       9.20267000       0.16115200      -0.43586100       0.03277300
Mg       4.99223000      13.79886000       9.11613000      -0.01061700      -0.08725700      -0.07346700
Mg       8.16334000      13.69472000       9.24076000       0.00727400      -0.00985300      -0.37657600
Li       1.75898000       0.72242000      11.64030000       0.21687800       0.05193400      -0.27916100
Li       5.17728000       0.88467000      11.23248000      -0.13996400       0.22555600       0.11819500
Li       8.61085000       1.25664000      11.49155000      -0.30637900      -0.20926100      -0.14526500
Li       1.47665000       6.42488000      11.41283000       0.23458200      -0.36056100       0.12247800
Li       4.92498000       6.00823000      11.34887000      -0.25501800       0.23463500      -0.07847000
Li       7.73757000       6.21983000      11.78937000       0.30678900       0.32232100      -0.32955700
Li       0.23771000       8.75568000      11.82540000      -0.16246000       0.26710600      -0.34695900
Li       3.26611000       8.87816000      11.76697000       0.08314900       0.16804700      -0.25662400
Li       6.99439000       9.57364000      11.51665000      -0.04656100      -0.14064600      -0.11305500
Li       1.68313000      11.96894000      11.57219000       0.17724600      -0.01769600       0.06439000
Li       5.10139000      11.99695000      11.52882000      -0.02439200       0.00039100       0.12331800
Li       8.26387000      12.36862000      11.90058000       0.09662400      -0.15538100      -0.40526600
Li       0.15558000      14.79964000      11.62738000       0.16942300       0.09986300      -0.13709500
Li       3.77793000      15.17686000      11.56401000      -0.14951000      -0.41419200      -0.24598100
Li       6.78485000      14.92202000      11.44978000      -0.13587400       0.09518400       0.16538700
Li       0.64655000       1.53840000      14.04156000      -0.08732300      -0.32910200      -0.25344600
Li       3.52145000       1.74167000      13.92748000       0.12807300      -0.16961400      -0.08065500
Li       6.44608000       1.64041000      13.67226000       0.25941900       0.05721900       0.06459700
Li       0.21182000       3.76653000      11.21355000       0.18441100      -0.00968700       0.17993700
Li       3.40370000       3.34235000      11.52504000      -0.14326400       0.01841300      -0.05109300
Li       6.55537000       3.83432000      11.28000000       0.15785600      -0.45130900      -0.26494000
Li       8.46889000       8.46814000      14.28437000       0.10479700      -0.23949100      -0.51382400
Li       2.01457000       8.58680000      14.21330000      -0.05608100       0.08815500       0.07658500
Li       5.49326000       7.97484000      13.41796000       0.14083400       0.12499300       0.13782900
Li       7.42529000      11.00768000      13.98752000      -0.33073400      -0.28583100       0.12562100
Li       0.49869000      10.77362000      13.90771000       0.42713100       0.09570900      -0.16805100
Li       4.51288000      10.45176000      14.27801000      -0.00763700       0.03378200      -0.14835900
Li       0.12177000      13.57266000      14.16612000       0.12811300      -0.08411000       0.00737600
Li       3.32037000      12.97693000      13.99145000      -0.05319700      -0.01426700      -0.02751400
Li       6.74446000      13.44240000      14.15106000      -0.39283700       0.18850200      -0.13996500
Li       1.83703000       3.83818000      14.11587000      -0.00761200       0.28752300      -0.32002500
Li       5.18259000       4.15604000      13.63763000      -0.08294000      -0.14051200       0.13288700
Li       8.43767000       3.65543000      13.67649000      -0.03672500       0.03506600      -0.00624900
Li       0.38779000       6.17524000      13.96771000      -0.16833500       0.03536900       0.13205000
Li       3.39771000       6.33760000      13.94985000       0.02426000      -0.02644600      -0.12243200
Li       6.93314000       5.90963000      14.37722000       0.07092300       0.16643800       0.12156600
Li       0.19254000       9.01150000      16.49974000       0.28484000      -0.00466500       0.43671300
Li       3.74588000       8.59465000      16.42077000       0.07982400      -0.01961600      -0.07607000
Li       6.89889000       8.96619000      16.06815000      -0.35127600      -0.02216100       0.53074000
Li       1.67615000      13.46867000      16.65727000       0.14166700       0.33544900      -0.00686500
Li       4.81882000      13.79442000      16.29515000      -0.08031400       0.02648700      -0.00985200
Li       7.94944000      14.04813000      16.54338000       0.26211700       0.01470400      -0.00103200
Li       2.25047000      15.53910000      13.83199000      -0.23264200       0.08442200       0.05571000
Li       4.92264000      16.07143000      13.97405000       0.28663000      -0.34697600       0.15952400
Li       8.22508000      15.84966000      13.88228000      -0.03423900       0.27878100      -0.01517400
Li       8.52445000       1.68185000      15.99038000      -0.26685200      -0.20924200       0.26690600
Li       2.21608000       1.97029000      16.33637000      -0.07445800       0.13865100       0.39676300
Li       5.21813000       2.00017000      16.39783000      -0.38423500      -0.04372100       0.13787800
Li       0.21966000       3.92168000      16.38799000       0.12822400       0.27646200       0.12330800
Li       3.69954000       4.55552000      16.01776000      -0.01835600      -0.14808600       0.30430300
Li       6.88740000       3.89833000      16.28385000       0.06947300       0.12927700       0.11486800
Li       8.50570000       6.46931000      16.79523000      -0.07870800       0.02585900      -0.02543200
Li       1.81591000       6.59415000      16.52575000      -0.06938800      -0.14918700       0.22475100
Li       5.47796000       6.49708000      16.82228000      -0.02849000       0.06930100      -0.15905300
Li       9.05717000      11.54592000      16.10536000      -0.25990800       0.08284600       0.62266400
Li       2.56510000      11.11114000      16.52932000       0.14602900      -0.22314400      -0.04726700
Li       5.77120000      11.38821000      16.65182000       0.21518000       0.17474200      -0.14866600
Li       0.68851000      16.01430000      16.00825000      -0.37487300       0.09237900       0.40514000
Li       3.40080000      16.19605000      16.46603000      -0.07862900       0.05176100      -0.16569000
Li       6.61076000      16.40003000      16.44560000      -0.00744500      -0.13001900       0.09151800
132
Lattice="9.60909 0.0 0.0 0.0 16.643432 0.0 0.0 0.0 17.830265" Properties=species:S:1:pos:R:3:REF_forces:R:3 free_REF_energy=-218.71361671 REF_energy=-218.75820261 magmom=9.05e-05 REF_stress="0.0011825350435172197 -0.00017378233859196757 0.0013634639100583237 -0.00017378233859196757 -0.0021710902249111137 0.001632635232621165 0.0013634639100583237 0.001632635232621165 -0.0030500881966183785" pbc="T T T"
Mg       0.06712000       1.69376000       0.98177000      -0.09112800      -0.08953300       0.16630900
Mg       3.13150000       1.47673000       1.27057000       0.29650300       0.36435300      -0.22135000
Mg       6.56922000       1.64967000       1.09573000      -0.13149400       0.15258500      -0.04225500
Mg       1.62687000       4.38115000       1.03863000       0.29415800      -0.19436500       0.06001400
Mg       4.78243000       4.33385000       1.15280000      -0.08459000      -0.11449500       0.30279100
Mg       8.11834000       4.38550000       1.20114000      -0.13542700      -0.25208900      -0.22102100
Mg       0.05795000       7.14380000       1.37546000       0.09429700      -0.18597800      -0.15637300
Mg       3.28911000       7.11335000       1.30264000       0.13328100      -0.01688800       0.17226200
Mg       6.53954000       6.92800000       1.29259000      -0.25837300       0.36121800      -0.13963400
Mg       1.83199000       9.69618000       1.23075000      -0.29760000       0.39220600      -0.26037400
Mg       4.93671000      10.07689000       1.10076000       0.43894800      -0.23156600       0.37932800
Mg       8.16956000       9.73493000       1.00792000      -0.04355900       0.21908400       0.24673300
Mg       0.22999000      12.63822000       1.01174000      -0.21916500      -0.00945700       0.02039600
Mg       3.32932000      12.84497000       1.02802000       0.12903700      -0.28203600      -0.05820600
Mg       6.56983000      12.78702000       0.91513000       0.13948800      -0.10249300       0.13448200
Mg       1.85898000      15.48409000       0.98803000      -0.39016900       0.03649900       0.04623700
Mg       5.02617000      15.70127000       1.19658000      -0.25577100      -0.23208100      -0.27213300
Mg       8.07979000      15.54194000       1.04621000       0.20316100      -0.07659800      -0.15522500
Mg       9.51864000      16.37877000       3.62617000       0.60337800       0.19516800       0.11243400
Mg       3.26979000      16.33318000       4.02166000       0.01357900      -0.14240000      -0.58775600
Mg       6.50095000      16.39863000       3.81819000      -0.06062700       0.23498800      -0.04866700
Mg       1.76432000       2.21324000       3.90804000      -0.31630300       0.57563100      -0.13760700
Mg       4.80432000       2.42287000       3.74292000       0.24162700       0.22803400       0.03339500
Mg       8.01078000       2.45828000       3.90566000       0.16502000       0.07169300      -0.23433900
Mg       0.19161000       5.02739000       3.60514000       0.07711800       0.14230000       0.43119400
Mg       3.33705000       5.43212000       3.85920000      -0.14571700      -0.44089800       0.02524800
Mg       6.65959000       5.25115000       3.84934000      -0.09454000      -0.10483300      -0.02843800
Mg       1.69369000       8.22049000       3.86666000       0.18275300      -0.23807400       0.10481400
Mg       4.96459000       7.86746000       3.75149000       0.20980900       0.60088800      -0.04694200
Mg       8.07905000       8.09314000       3.88882000       0.18788500       0.08524400      -0.24025300
Mg       0.27460000      10.89591000       3.84437000      -0.12490600       0.10798400       0.01212800
Mg       3.46658000      10.80514000       3.58806000       0.03611100       0.24372600       0.53222200
Mg       6.76366000      10.85388000       3.70680000      -0.19160100       0.09141700      -0.15372200
Mg       1.79528000      13.64018000       3.69447000       0.00354500      -0.01057400       0.11091700
Mg       5.17267000      13.74136000       3.66013000      -0.42046200      -0.31377300       0.00436100
Mg       8.19198000      13.78328000       3.77239000       0.20438200      -0.43591700      -0.11787700
Mg       0.11181000       1.59637000       6.41698000       0.22373900       0.16638400       0.04784300
Mg       3.50953000       1.62228000       6.47721000      -0.68827200       0.36818600      -0.27271100
Mg       6.48648000       1.64154000       6.43222000       0.31212500       0.20991300      -0.17392500
Mg       1.83412000       4.34921000       6.36543000       0.20788500      -0.00338400      -0.20660000
Mg       5.11471000       4.41969000       6.32180000      -0.09725500       0.02672400      -0.07378400
Mg       8.42794000       4.42258000       6.43306000      -0.51137400      -0.33981000      -0.26896800
Mg       0.17208000       6.90956000       6.10297000       0.41412200       0.59626300       0.43113200
Mg       3.62965000       7.54001000       6.34739000      -0.55190500      -0.77609000       0.13401800
Mg       6.73866000       7.17613000       6.38461000      -0.13468500      -0.04767400      -0.07427700
Mg       2.04934000      10.11728000       6.58272000      -0.22211300       0.02372100      -0.29978100
Mg       5.23235000       9.91223000       6.31302000       0.08147000       0.40516700       0.06294600
Mg       8.38363000       9.87345000       6.58841000       0.24713400       0.02594800      -0.48625500
Mg       0.39144000      12.86070000       6.55318000      -0.15714400      -0.38204200      -0.39331100
Mg       3.63594000      12.95356000       6.32303000      -0.39957900      -0.35443300      -0.01606500
Mg       6.65974000      12.66054000       6.17701000       0.20288800       0.27309800       0.28641900
Mg       1.63789000      15.56101000       6.49973000       0.12231100       0.12333100      -0.21222000
Mg       4.79752000      15.70051000       6.38716000       0.59546000      -0.49441200       0.32977700
Mg       8.12460000      15.76570000       6.38740000      -0.10206300      -0.46846300      -0.11650200
Mg       0.28807000      16.44882000       9.16601000      -0.42294200       0.45353800      -0.09573400
Mg       3.29380000       0.07453000       9.06277000       0.20092100      -0.32262700       0.11538000
Mg       6.60128000      16.55851000       9.02689000       0.06392600       0.11011000      -0.05339600
Mg       1.78588000       2.84177000       9.02635000       0.05212500      -0.48800900       0.00997600
Mg       4.93138000       2.49623000       8.86179000       0.27669900       0.55155000       0.32621900
Mg       8.29873000       2.77274000       8.96556000      -0.15604800      -0.23168700       0.01655400
Mg       0.29701000       5.42728000       8.97584000       0.00473200       0.46147100      -0.11331700
Mg       3.54318000       5.34295000       8.78781000      -0.04512200       0.07075500       0.33572200
Mg       6.76698000       5.46315000       8.83571000      -0.18173100      -0.53663100       0.26998000
Mg       2.15434000       8.15923000       9.13498000      -0.38488600       0.03138000      -0.11721200
Mg       5.20681000       7.94927000       8.96771000      -0.26568500       0.55226000       0.21753900
Mg       8.12302000       8.09941000       9.13817000       0.64437600       0.31750600       0.05928900
Mg       0.35677000      10.92695000       9.14887000       0.40118200       0.00386200       0.01879600
Mg       3.70040000      10.92627000       9.12005000       0.03555200       0.04909500      -0.09411600
Mg       7.11924000      11.17815000       8.90592000      -0.89621500      -0.16238400       0.15490600
Mg       1.94834000      13.97107000       9.11573000       0.10686600      -0.50627700      -0.00929600
Mg       5.13050000      13.75190000       8.98567000       0.05500200       0.19352300      -0.23373900
Mg       8.34664000      13.91832000       8.75100000      -0.12744200      -0.15954900       0.46505000
Li       1.71075000       0.86211000      11.48429000       0.01912700       0.02048800       0.02987700
Li       5.12536000       0.98857000      11.44984000      -0.13679200      -0.31577800      -0.10526900
Li       8.23148000       1.29367000      11.37378000       0.00137100      -0.37759900       0.09470900
Li       1.86626000       6.29442000      11.48995000       0.01169100       0.13061000       0.03469900
Li       5.01882000       6.27075000      11.52892000       0.02310100       0.04491500      -0.06947800
Li       7.97145000       6.29226000      11.53120000       0.19800500       0.16039200      -0.10672800
Li       0.42470000       9.17494000      11.64757000      -0.08878200      -0.05723200      -0.16035900
Li       3.34871000       9.31012000      11.70810000       0.12301100      -0.12816900      -0.11425300
Li       6.52621000       9.60097000      11.53332000       0.00508400      -0.18814100      -0.12859000
Li       1.89420000      12.06554000      11.43609000       0.10968800       0.01964600       0.16364200
Li       5.06611000      12.30405000      11.37272000       0.04476500      -0.23645500       0.21210100
Li       8.21833000      12.09749000      11.51611000       0.09720000      -0.01755000       0.01459400
Li       0.15279000      14.68119000      11.64755000       0.18472300       0.13640400      -0.16397900
Li       3.61365000      14.84210000      11.50617000      -0.10645000       0.08083000       0.06843200
Li       6.76176000      14.88717000      11.33195000       0.04871100      -0.06155300       0.23730700
Li       0.00293000       1.67885000      13.75664000       0.12021000       0.06869800       0.22144400
Li       3.28100000       1.48937000      13.78405000       0.01773300      -0.18998500       0.20718300
Li       6.16532000       1.64928000      13.81812000       0.27471400      -0.10059400       0.15267500
Li       0.40901000       3.92601000      11.37411000      -0.13765600      -0.32249200       0.14590800
Li       3.48427000       3.35504000      11.56489000      -0.07039900       0.21951000      -0.32586600
Li       6.43619000       3.44282000      11.24136000      -0.09567500       0.31165300      -0.13931700
Li       8.55620000       8.45297000      13.88480000      -0.11401200      -0.00276700       0.09731800
Li       2.20658000       8.62384000      14.36417000      -0.11750500       0.28464100      -0.06304800
Li       5.31210000       8.67673000      14.05557000       0.02139300      -0.07424100       0.03210600
Li       7.29611000      10.90157000      14.14952000      -0.12324900      -0.23343600      -0.24389000
Li       0.65929000      11.12049000      13.95574000       0.07713200      -0.09878400      -0.11351800
Li       3.97106000      11.14303000      13.90059000       0.06433400      -0.36933400      -0.03689700
Li       9.03896000      13.52629000      14.08597000       0.24657100      -0.20069700      -0.25156600
Li       2.86882000      13.33629000      14.17934000      -0.01929800       0.18453600      -0.18977800
Li       6.11238000      13.08607000      13.96723000       0.01325900       0.33679500      -0.09100000
Li       1.87747000       3.87545000      13.88927000      -0.06445000      -0.01985400       0.02399700
Li       4.90865000       3.96012000      13.85999000       0.06447100       0.17309400       0.06290000
Li       7.96370000       4.03151000      13.29372000       0.25246100      -0.27446000       0.40892500
Li       0.43861000       6.15253000      14.28618000      -0.12696100       0.04314400      -0.15587300
Li       3.43973000       6.45205000      13.93940000       0.12941600      -0.27938800       0.14274000
Li       6.79394000       6.14120000      14.17397000      -0.27141800       0.23505300       0.20928400
Li       0.33150000       8.69640000      16.40783000      -0.16487800       0.08986600       0.20071900
Li       3.74824000       9.03551000      16.82162000      -0.35242300      -0.17013300      -0.44403200
Li       6.67848000       8.64852000      16.54106000       0.00631700       0.36663000      -0.03289800
Li       1.31849000      13.95647000      16.28117000      -0.09890800      -0.28915900       0.36050400
Li       4.71012000      13.84227000      16.50158000      -0.00866500       0.21797500       0.01159400
Li       7.91428000      13.88358000      16.26907000      -0.21199700      -0.02024400       0.41654300
Li       1.58508000      15.73934000      14.15240000      -0.18624700       0.17687100      -0.48967000
Li       4.96094000      15.52293000      14.05084000      -0.07835000       0.12719800      -0.32876700
Li       8.03842000      15.95965000      13.94059000      -0.08514000       0.13906200      -0.23809500
Li       7.89248000       2.06823000      16.17945000       0.03586400       0.21412900       0.07454800
Li       1.70024000       1.93978000      16.41691000       0.09196900      -0.02393200      -0.03564300
Li       4.71024000       1.95512000      16.45267000       0.15098000      -0.30721100       0.10862900
Li       0.14943000       4.19635000      16.35522000      -0.22140300      -0.01216300      -0.02766600
Li       3.40185000       4.15849000      16.30391000      -0.39640300       0.26931100       0.06321900
Li       6.13548000       4.34318000      16.65296000       0.60167500      -0.05655400      -0.27556300
Li       8.01071000       6.44754000      16.73914000       0.36198900      -0.11024200      -0.11193900
Li       1.83047000       6.54001000      16.87143000      -0.03646800      -0.04543100      -0.33533700
Li       4.70452000       6.65905000      16.65757000       0.21068600      -0.20169400      -0.16916300
Li       8.53503000      11.14992000      16.32844000       0.11825900       0.20208500       0.34825400
Li       2.07753000      11.10182000      16.40038000       0.01734200       0.34286600       0.13054400
Li       5.26321000      11.41375000      16.46202000       0.21246300      -0.25919700      -0.19854300
Li       9.59073000      16.49605000      16.35240000      -0.05235700      -0.19985100       0.16334400
Li       3.21207000      16.07166000      16.15364000       0.15337400       0.29296900       0.48040600
Li       6.45977000      16.30976000      16.17564000      -0.03990500      -0.01433600       0.48515200
132
Lattice="9.60909 0.0 0.0 0.0 16.643432 0.0 0.0 0.0 17.830265" Properties=species:S:1:pos:R:3:REF_forces:R:3 free_REF_energy=-217.86024961 REF_energy=-217.90134271 magmom=0.0003875 REF_stress="0.00014807980401158028 0.0001808102778677121 0.0012679376128866804 0.0001808102778677121 -0.0018642513947735668 -0.00018918638311464744 0.0012679376128866804 -0.00018918638311464744 -0.005096017439028156" pbc="T T T"
Mg       0.04343000       1.61639000       1.46429000       0.49952800       0.19182000      -0.73155300
Mg       3.45006000       1.71695000       1.15982000      -0.15578700       0.24632000       0.35741200
Mg       6.57502000       1.64983000       0.84974000      -0.11401700       0.22527900       0.13291300
Mg       1.71987000       4.52330000       1.00660000       0.13282400      -0.06864500      -0.15540600
Mg       5.05585000       4.43777000       1.21443000      -0.29582600       0.13806400       0.21955700
Mg       8.23228000       4.37586000       1.07993000      -0.17834900       0.28884600      -0.22975800
Mg       0.26147000       7.33023000       0.95629000      -0.27294700       0.27163700       0.16548100