220
Lattice="13.759364 0.0 0.0 -13.759357 23.831922 0.0 0.0 0.0 37.488127" Properties=species:S:1:pos:R:3:ref_forces:R:3 free_ref_energy=-660.10180745 ref_energy=-660.10125613 magmom=0.7735858 stress="0.0014416263288417597 0.00013153356331886378 0.0006533861413339629 0.00013153356331886378 0.0007680863545403196 0.0003245959236006847 0.0006533861413339629 0.0003245959236006847 -0.0003165131692826659" pbc="T T T"
Bi       2.11463000       1.32365000       9.38346000       0.32382600      -0.02833700      -0.06369100
Bi      -0.06326000      23.61988000      10.89371000       0.03330800       0.15490600       0.42745900
Bi      -0.03640000       2.40733000      13.30294000       0.08188700       0.04918800      -0.09944700
Bi       2.15828000       1.34500000      15.25205000       0.02546300      -0.01857900      -0.10972700
Bi      -1.27609000      23.78573000      19.65903000       0.10694000       0.03535400      -0.41508000
Bi       1.06804000       3.90154000      24.29403000      -0.20816800      -0.02020800       0.07261500
Bi       0.04778000       5.04998000       9.52444000       0.06232600      -0.24078200      -0.05091400
Bi      11.35178000       3.66529000      10.85645000      -0.07817000       0.11750300      -0.03429200
Bi      -2.52536000       6.53107000      13.18353000      -0.25441900       0.36793700      -0.00801000
Bi      -0.39964000       5.10132000      14.75104000       0.49625300       0.03043000       0.49701600
Bi      11.21743000       4.07549000      17.42054000       0.04093200      -0.28475900       0.17888200
Bi      -0.62455000       7.44617000      21.97745000       0.07135000       0.47576500      -0.59614200
Bi      -2.48300000       9.01507000       9.40761000       0.19975100       0.18246000       0.38544400
Bi       8.91582000       7.93623000      11.11999000      -0.12677200      -0.02903900      -0.57500000
Bi      -4.67766000      10.79642000      13.71081000      -0.03512600      -0.06600900      -0.34788500
Bi      -2.64870000       9.03932000      15.20523000       0.28071700      -0.35871500       0.14072300
Bi      -3.60550000       6.81584000      18.11759000      -0.33151000       0.52574500      -0.50163400
Bi      -5.52188000      10.45833000      18.54102000       0.65080200      -0.25034100       0.27513900
Bi      -4.82063000      13.02390000       9.61307000       0.30178600       0.15825400      -0.54411000
Bi       6.58564000      11.59213000      10.87362000      -0.22951400       0.15003000       0.17693700
Bi      -6.99555000      14.71997000      13.42851000      -0.12344700       0.00260300       0.00272500
Bi      -4.83688000      13.47810000      15.20517000       0.01437700      -0.18540500       0.25661800
Bi       5.82399000      11.96892000      17.64262000      -0.51344000       0.58435800       0.11726900
Bi      -7.02715000      15.03288000      21.88816000       0.15773100       0.20820000      -0.02301100
Bi      -7.16281000      17.29074000       9.48399000      -0.17136900      -0.01318500       0.12814400
Bi       4.31199000      15.77093000      11.01008000      -0.07685600       0.07158300      -0.33991100
Bi      -9.35600000      18.28885000      13.76323000      -0.23026200      -0.26534300      -0.11873400
Bi      -6.94105000      17.18075000      15.32448000      -0.26180700      -0.33706200       0.13265800
Bi      -9.02679000      17.65223000      18.16296000      -0.10093400      -0.25747600       0.38022900
Bi      -8.95929000      19.30508000      22.85760000      -0.18021500      -0.04835600      -0.44219000
Bi      -9.26283000      21.13952000       9.71021000       0.08475300       0.02799000      -0.01292400
Bi       2.12464000      19.95342000      11.30315000      -0.16010900       0.05752200      -0.42148000
Bi     -11.71817000      22.48490000      13.66233000       0.44691800       0.00235900       0.14014000
Bi      -9.34417000      20.96105000      15.18767000      -0.35072000       0.40699600      -0.15369200
Bi     -11.10984000      20.18728000      17.80817000      -0.29285600       0.24907400       0.00989700
Bi     -11.60973000      23.38198000      23.06877000       0.95991200      -0.83533900      -0.41774400
Bi       6.77752000       1.37305000       9.42028000       0.25004600       0.07956900      -0.20304700
Bi       4.52693000       0.14671000      11.00502000      -0.28199700      -0.30048900       0.30269100
Bi       4.59725000       2.69963000      13.91156000      -0.05676700       0.09560000      -0.17042300
Bi       6.96851000       1.47677000      15.46790000      -0.11917800      -0.21631200       0.31733500
Bi      -9.80972000      23.12760000      18.42904000      -0.07079100       0.25273000      -0.02880500
Bi       4.46667000       2.44863000      20.44191000       0.22531700      -0.45873700       0.25128100
Bi       4.79176000       4.85194000       9.31764000      -0.26306800      -0.02255600       0.41099200
Bi       2.39145000       3.80223000      11.19659000       0.10893900      -0.09077400      -0.66611200
Bi       2.17024000       6.23703000      13.33335000       0.14032400       0.24186500       0.21531400
Bi       4.57851000       5.47619000      15.32883000      -0.32537500      -0.09170700       0.13464300
Bi       0.09537000       3.00375000      19.07826000      -0.10071100      -0.06580100       0.13461000
Bi       2.83222000       6.04366000      18.98005000       0.14353400       0.11204400      -0.50774800
Bi       2.30188000       9.03058000       9.31947000       0.05079800      -0.06936300      -0.05660900
Bi       0.04439000       7.72138000      10.99085000      -0.33219200       0.40597700      -0.05922600
Bi      -0.45989000      10.22867000      13.42639000      -0.07952600      -0.16335400      -0.18633000
Bi       2.10426000       8.99450000      14.71047000       0.14007700       0.04892400       0.32028500
Bi       0.52747000       7.65912000      17.23233000      -0.13865300       0.01300000       0.23412900
Bi      -0.02551000      11.14012000      24.17423000       0.29814800       0.22724200      -0.48356200
Bi      -0.27294000      13.18911000       9.44408000       0.28242800       0.21365600      -0.10145700
Bi      -2.40463000      11.72916000      11.06400000      -0.16264300      -0.17366900       0.01570300
Bi      -2.35008000      14.51654000      13.71485000      -0.22827800       0.20892100      -0.14237800
Bi      -0.34152000      12.79541000      15.28259000       0.42098600       0.12665600      -0.13352700
Bi      -2.36937000      11.61052000      19.13358000       0.24189900       0.30916200       0.19792100
Bi      -1.61704000      15.29109000      22.72131000      -0.09840200      -0.17923300       0.15488500
Bi      -2.46936000      16.99752000       9.41432000       0.04710000       0.03563200       0.13701700
Bi      -4.92493000      15.79046000      10.98757000       0.25027200       0.01702100       0.10153600
Bi      -4.80906000      18.33011000      13.46508000       0.40679200       0.15657700      -0.07528100
Bi      -2.37830000      17.31129000      15.13077000       0.26429800      -0.23292300      -0.03025600
Bi      -3.43913000      15.99652000      18.71291000      -0.09538900       0.60781000      -0.30996900
Bi      -4.33226000      19.44959000      22.28451000       0.60041700      -0.68756200       0.04483000
Bi      -4.85348000      20.88341000       9.43461000      -0.04575300      -0.00389800      -0.13129000
Bi      -6.99520000      19.77617000      11.37941000      -0.25589000       0.08311200      -0.24449800
Bi      -6.96215000      22.78966000      13.69559000      -0.05766100      -0.42515400      -0.13725500
Bi      -4.64772000      21.07906000      15.00584000      -0.06289200       0.26875200      -0.23581300
Bi      -6.39834000      19.75453000      17.98541000       0.14870800      -0.21101300       0.44305600
Bi      -6.04849000      23.53101000      22.12176000      -0.38633000      -0.65960500      -0.82830200
Bi      11.52217000       1.00775000       9.20173000      -0.29259000       0.28858900      -0.08413000
Bi      -4.63049000      23.61888000      10.81150000      -0.14158500       0.10484000       0.07812900
Bi       9.11453000       2.44734000      13.51292000      -0.04775000      -0.18433100      -0.54535100
Bi      11.46191000       1.17365000      14.89134000       0.04761800       0.03248800       0.46761500
Bi      -3.37539000      21.55259000      18.03013000      -0.16100300      -0.27539600       0.29918300
Bi      10.36026000       4.15490000      22.55263000      -0.29428900      -0.31980400      -0.32373100
Bi       8.85809000       5.22192000       9.50774000       0.56854500       0.28263700      -0.06801600
Bi       6.95108000       3.81601000      11.28439000      -0.58504600      -0.10200400       0.04671200
Bi       6.89130000       6.83465000      13.74405000      -0.21529800      -0.30185200      -0.61461900
Bi       9.26719000       5.06259000      14.98411000      -0.06327500       0.19278700       0.15000900
Bi       8.45137000       2.56997000      18.29053000       0.06184800      -0.03785700       0.09309500
Bi       6.45655000       7.18747000      21.78915000       0.28360900       0.07073500      -0.20241100
Bi       6.61869000       9.04318000       9.17958000       0.29668700      -0.19586600       0.20688600
Bi       4.54815000       7.52645000      10.91080000      -0.01433200       0.28057100       0.02056700
Bi       4.51679000      10.52745000      13.27192000       0.11884700      -0.07638300       0.12260200
Bi       6.79658000       9.48730000      15.26268000      -0.45649100       0.23992300       0.27134900
Bi       3.89287000       9.30251000      18.24508000       0.47797800      -0.28349900      -0.11879600
Bi       4.70482000      11.48643000      22.73322000       0.33270900      -0.29534400      -0.18938400
Bi       4.47469000      13.15967000       9.17212000       0.28866000       0.29546500       0.04988700
Bi       2.28400000      11.79718000      10.67857000      -0.40577600      -0.11604800       0.37880400
Bi       1.73185000      14.78712000      13.86362000       0.08231800      -0.00138200       0.04387900
Bi       4.32381000      13.28981000      14.90627000       0.06320600      -0.14441000      -0.06978100
Bi       0.92620000      10.57954000      18.68072000      -0.10710600      -0.67752700       0.71131700
Bi       2.64366000      15.33196000      24.66392000       0.18249900      -0.30425000       0.13956800
Bi       1.99903000      17.44676000       9.51893000       0.37359400      -0.28426400       0.12472000
Bi      -0.10053000      15.86478000      11.10753000      -0.29764500      -0.12818300      -0.10735700
Bi      -0.12823000      18.78678000      13.68215000      -0.05717500      -0.12354900      -0.01307800
Bi       1.90086000      17.43025000      15.63806000       0.07601700       0.34226500      -0.26151100
Bi       2.04106000      14.32040000      20.03505000      -0.15867300      -0.14534600      -0.28892000
Bi       0.19075000      19.26043000      25.54398000       0.65021200       0.37422700       0.12279100
Bi      -0.13483000      21.06981000       9.30024000       0.21901200      -0.53124300       0.18736200
Bi      -2.46383000      19.69127000      10.93646000       0.19704000      -0.01124900       0.03548000
Bi      -2.48406000      22.52905000      13.22095000      -0.07909200      -0.42215600       0.04686300
Bi      -0.35725000      21.44049000      15.24020000       0.03269300      -0.10908100       0.00751900
Bi       0.26077000      19.53113000      20.53847000       0.41523200      -0.29841200       0.25833600
Bi      -1.81864000      23.30930000      24.50499000      -0.21826600       0.35565800      -0.08376700
Li       1.64731000       3.87883000      16.71702000      -0.00649700       0.22655900       0.18221000
Li      -8.60463000      20.69335000      19.37593000      -0.04130100       0.08797800       0.09782700
Li      -7.28735000      22.11220000      16.80826000       0.02505700       0.31087200      -0.05881300
Li      10.46513000       0.68003000      17.62129000       0.29566700       0.01717700      -0.52473500
Li      -0.10255000       5.86226000      19.30862000      -0.01860600       0.05511000      -0.17683200
Li       7.44453000       6.82280000      16.61413000       0.27862400       0.02971700       0.09666300
Li       8.54778000       4.94552000      19.95003000       0.03312100       0.13459900      -0.06097900
Li      11.05813000       2.69318000      20.09316000      -0.08903900       0.10541300      -0.05215800
Li       1.23310000       8.14333000      20.02841000       0.13041900       0.19426600       0.20570300
Li       3.98932000      11.48815000      19.86531000      -0.26816200       0.51812700       0.11820100
Li       8.52856000       8.00347000      19.88250000      -0.23527800      -0.01512100       0.37330000
Li      -1.65608000       8.74937000      19.18419000      -0.06300700      -0.15552900      -0.11698800
Li       0.18465000      12.97989000      18.10789000       0.12705300       0.47406400       0.04753600
Li       1.85985000      11.83056000      13.64016000       0.21274000       0.11162300      -0.21162000
Li      -2.12339000      13.99848000      17.04588000      -0.50969200       0.18386600       0.07266800
Li      -1.00042000      15.21950000      19.88464000       0.23689300       0.13120800       0.09225300
Li       1.75009000      16.94383000      18.97972000       0.04613600       0.19461500      -0.09354200
Li       4.93553000      14.53248000      19.23212000      -0.01183300      -0.13717100       0.03738400
Li      -3.52013000      13.93507000      20.56631000       0.25393700      -0.32656600       0.46646200
Li       3.27994000      15.32402000      16.83475000       0.07580700      -0.29660000       0.09869600
Li     -11.50539000      22.01166000      20.53960000      -0.24247100      -0.39160800      -0.21509900
Li     -10.64929000      19.05060000      20.52366000      -0.03344000       0.03172000      -0.09708200
Li      -4.29526000      18.44872000      16.81302000      -0.06533300      -0.14256000      -0.00251900
Li      -1.55106000      18.19122000      18.38921000       0.13898300       0.06253800      -0.19980000
Li      -9.27145000      23.35688000      21.34764000       0.20776200       0.11297800       0.13221900
Li      -6.81436000      18.77263000      20.84946000      -0.17155400      -0.22267600      -0.01497100
Li      -5.42758000      21.36617000      20.34126000       0.11526800       0.02609800      -0.16377800
Li      -0.38119000      21.13566000      18.23237000      -0.06214900       0.02089200       0.07128400
Li       1.97310000       0.80470000      19.91806000      -0.00037800       0.34449500       0.24910500
Li       2.14947000       3.93356000      20.53529000       0.01612900      -0.18809500       0.19938500
Li       6.64059000       0.39699000      19.41216000      -0.27847000      -0.15098200      -0.16301500
Li      -0.44069000      22.62346000      22.06326000       0.21549600      -0.07891200       0.05659100
Li      -0.45868000       2.14241000      21.95162000       0.21226900      -0.22469000      -0.12732600
Li       5.75834000       7.06394000      19.01482000      -0.30299100       0.16288600      -0.01963400
Li       5.07843000       3.11352000      17.85955000       0.12136100       0.09572800      -0.24249400
Li       9.54011000       0.22061000      19.77180000      -0.45092600      -0.22837900       0.13562500
Li      -0.36957000       4.75835000      21.63432000      -0.11001500      -0.50972900       0.07949800
Li       1.88314000       6.17575000      22.51982000       0.12351100      -0.05912900       0.01545600
Li       7.29767000       4.73141000      22.74760000       0.21090200      -0.10816600       0.25110300
Li      -3.38046000       7.17570000      22.90064000      -0.24473800       0.06159000       0.18093300
Li      -1.28140000       8.66175000      24.35252000      -0.01658300       0.13591300       0.10451400
Li       1.78845000       8.89079000      23.48130000      -0.34503000       0.27192700       0.16229900
Li       2.56112000      11.46508000      16.64773000       0.30231600       0.04759500      -0.14876000
Li      -0.43485000      12.90526000      21.18812000      -0.30645200      -0.15777800      -0.33401400
Li       2.75100000      12.32780000      24.70239000      -0.27766500       0.11365200      -0.15865000
Li      -8.96203000      16.64654000      23.57645000       0.24400200      -0.10333400       0.17525400
Li      -4.60244000      16.27647000      21.26421000       0.25176700       0.30872600       0.33273500
Li       1.06537000      14.02883000      22.67495000       0.10476000       0.26565100       0.35116200
Li      -1.88055000      17.96001000      21.33138000      -0.14980100      -0.55518600       0.10772900
Li       1.60168000      16.68700000      22.07931000      -0.10540400       0.03510800      -0.15862400
Li      -4.87597000      13.42098000      18.32033000      -0.14053200      -0.18067900      -0.30919700
Li      -6.35188000      16.30529000      18.88810000       0.00075700       0.12655800      -0.07654000
Li     -12.58487000      23.49034000      17.40007000      -0.01007000      -0.03468900      -0.00681800
Li       4.11237000       0.31719000      25.42093000      -0.13315900       0.03548900      -0.19812700
Li      -6.59055000      20.75652000      23.05334000      -0.15470800      -0.00640500      -0.25254900
Li      -4.11378000      18.85027000      19.57389000      -0.25303300      -0.07577800      -0.26154300
Li       5.69018000       1.75185000      22.93407000      -0.06813500      -0.06397500       0.33101200
Li       9.84593000       4.75501000      25.21140000      -0.18676200      -0.08975900       0.02005600
Li       8.74551000       1.66300000      23.14596000       0.72821000       1.14763100       0.69711500
Li       0.59061000       0.92652000      24.41611000      -0.45067000       0.67702800       0.56039100
Li       2.77727000       2.18668000      22.83281000       0.02603100       0.04510200      -0.21533900
Li       7.30241000       2.40333000      20.95248000       0.23673800       0.13515700      -0.31359900
Li      -2.66992000       6.12082000      20.50199000       0.15125800      -0.27050700       0.23556300
Li       9.52075000       3.52362000      27.85497000       0.05707400       0.02245600      -0.33290800
Li       2.18484000       6.55448000      25.68821000       0.04734200      -0.18838800      -0.36652100
Li       6.07142000       9.72130000      20.29655000      -0.08551200      -0.07529200      -0.26449800
Li       7.23949000       9.82817000      22.59902000      -0.04941100      -0.22847400       0.08555900
Li       7.80376000       7.45756000      24.30425000       0.01751600      -0.07353300       0.01762500
Li       1.95278000      11.55094000      21.75737000       0.00156100      -0.13566300      -0.00096700
Li       3.88607000      14.28548000      22.24335000      -0.14778500      -0.22443700      -0.25763100
Li      -4.11029000      10.65386000      21.25741000       0.07153800       0.09948000      -0.12590600
Li      -0.69940000      10.19371000      21.33595000      -0.02915000      -0.01248300       0.22864700
Li       0.23712000      16.66296000      24.55839000      -0.18086900       0.03989900       0.06115100
Li      -9.15229000      16.79845000      20.93390000       0.11951100       0.02550600      -0.17073900
Li      -4.68930000      19.75419000      25.04579000       0.16858100      -0.16340900       0.21256100
Li      -4.89487000      17.49933000      26.80069000      -0.08624300       0.04859600      -0.13993100
Li      -9.66675000      21.49909000      24.38506000      -0.15595100       0.17498200       0.01073000
Li      -5.90016000      17.34365000      23.71134000      -0.21124300      -0.02619700      -0.11149400
Li      -1.44582000      19.96843000      23.39739000      -0.03652700       0.19677300      -0.07026100
Li      -1.92658000      21.21042000      26.35234000      -0.06907000      -0.10066100      -0.11543400
Li       1.91777000      20.41019000      22.93490000      -0.20355100      -0.18969700       0.02424500
Li      10.92557000       0.26509000      21.87820000      -0.06837700      -0.07207700       0.67382700
Li      -2.22947000      20.62750000      20.55593000      -0.21197100       0.45821700      -0.01173500
Li      -8.20123000      22.16995000      27.20797000      -0.28679800       0.05756800      -0.21721900
Li       3.99769000       3.56148000      25.04158000      -0.10359800       0.08254900      -0.01727000
Li       0.50343000      21.96237000      24.88298000       0.19359300      -0.11849500       0.04901600
Li       6.72548000       4.87110000      25.70769000       0.11075400       0.11399700       0.17379600
Li       9.54712000       0.28482000      25.67648000       0.09342800      -0.15638600       0.19115700
Li      11.77854000       2.36832000      24.34724000      -0.12055300       0.10002000       0.09746200
Li       7.22169000       2.01369000      25.92655000      -0.29512400      -0.11286000      -0.05959100
Li       4.85166000       6.20084000      23.77941000      -0.24635500       0.18666500       0.13946100
Li      -1.17569000       4.34201000      26.44569000       0.11926800       0.08305800      -0.00847200
Li      -1.17621000       5.71742000      23.89014000      -0.10647300      -0.33376400       0.52024900
Li       4.79135000       5.08109000      20.84659000       0.15349300       0.19754800       0.20493400
Li       3.93919000       8.67934000      21.66269000       0.17329100      -0.13535400      -0.22259800
Li       4.80510000       9.46520000      24.56720000      -0.08662600      -0.42391600      -0.00951900
Li      -3.74840000       7.40188000      26.36415000       0.10446800      -0.19071800      -0.12556900
Li       5.41792000      13.91490000      24.26419000      -0.09347600       0.06708900       0.14034100
Li      -6.94969000      12.37950000      20.54934000      -0.10314000       0.16205700      -0.22256400
Li      -6.04734000      12.37583000      23.04281000       0.14305500       0.37170700       0.17138700
Li      -4.02963000      10.19210000      24.33739000       0.05487800      -0.04974500       0.03245300
Li      -0.03322000      13.73165000      24.99759000      -0.03582800       0.20643800       0.06184900
Li      -2.84083000      17.36211000      24.10164000      -0.13596500       0.30569300      -0.01315500
Li      -2.39239000      12.45341000      23.04795000       0.05103600      -0.02313200       0.02851000
Li      -1.90267000      18.23121000      26.67058000      -0.31977900      -0.11453300       0.19465300
Li       2.86594000      18.26167000      24.74795000      -0.18195200      -0.11414500       0.10537600
Li      -3.67624000      14.76648000      24.62194000      -0.18659900      -0.00972700      -0.07901600
Li      -5.60815000      21.31984000      27.24709000       0.34573300      -0.11723200      -0.26431100
Li     -11.10333000      20.42604000      26.96221000      -0.10869600       0.00498200      -0.17448200
Li      -7.78596000      19.64702000      25.39432000       0.02102500      -0.04142100       0.31163400
Li      -6.87854000      22.78253000      24.56767000      -0.04200300       0.33300200       0.68641600
Li      -3.98337000      21.92651000      23.44941000      -0.02246800       0.26563000      -0.02647100
220
Lattice="13.759364 0.0 0.0 -13.759357 23.831922 0.0 0.0 0.0 37.488127" Properties=species:S:1:pos:R:3:ref_forces:R:3 free_ref_energy=-669.00237222 ref_energy=-669.00623897 magmom=0.3222852 stress="0.0010590405439524935 -0.0005344104943763763 -0.00032607516126351903 -0.0005344104943763763 0.0017199352207648943 0.0005927436386668812 -0.00032607516126351903 0.0005927436386668812 0.0011051715379018967" pbc="T T T"
Bi       2.27098000       1.41906000       9.24136000       0.15235100      -0.12737600      -0.03018800
Bi     -13.74492000      23.82836000      10.81125000       0.18067700       0.08663800      -0.05516900
Bi       0.05702000       2.70326000      13.47693000       0.17075400      -0.07278000      -0.63023700
Bi       2.45808000       1.48939000      15.33376000      -0.58572200       0.23689300       0.45782300
Bi      -1.37220000      23.30059000      21.63497000      -0.54613400      -0.52835700       0.32171900
Bi       0.23264000       3.32083000      25.07105000       0.10361900      -0.00384700       0.00653100
Bi       0.01546000       5.33233000       9.22339000      -0.14540300       0.22557900      -0.38048100
Bi      11.36808000       3.75697000      10.33109000       0.27566600      -0.43765500       0.43937000
Bi      -2.45462000       6.24491000      12.67388000       0.17897600       0.13550000      -0.22914300
Bi      -0.14518000       5.56169000      14.64703000      -0.21971500      -0.12444800       0.68462300
Bi      11.28793000       2.49420000      18.15302000      -0.17350800       0.46288300       0.02998500
Bi      -1.86424000       7.10854000      23.15149000      -0.08979700       0.41580800      -0.27439600
Bi      -2.53411000       9.25773000       9.16273000      -0.06286200      -0.16058100       0.06116800
Bi       8.99082000       7.70911000      10.81949000      -0.01091200       0.63569100       0.16145100
Bi      -4.35280000      10.84707000      13.10248000      -0.24301800      -0.39031400       0.23840600
Bi      -2.29499000       8.88460000      14.44234000      -0.37669800       0.11355700       0.22075300
Bi       9.01148000       6.01877000      18.88131000       0.38320100       0.02050500      -0.05144500
Bi       7.81692000       8.91611000      19.24906000       0.22528600       0.26295100      -0.12485800
Bi      -4.83007000      13.25825000       9.48156000       0.50570500       0.54041100      -0.40790800
Bi       6.72744000      11.67048000      10.71042000      -0.44710800      -0.48620000       0.27945600
Bi      -7.01928000      14.81359000      13.58674000      -0.15280000      -0.02928500       0.10249700
Bi      -4.89568000      13.18261000      15.08057000       0.34147800      -0.13488700       0.10172500
Bi      -7.27119000      13.09142000      18.41079000      -0.12350800      -0.35070700       0.29043400
Bi      -6.69777000      15.57250000      22.46598000       0.10014100       0.00441500       0.51953000
Bi      -7.03933000      16.98886000       9.43088000      -0.07265800       0.36906500      -0.08405800
Bi       4.51187000      15.56424000      11.04246000       0.37206000      -0.38120300       0.24223600
Bi      -8.94981000      18.70997000      13.28788000      -0.35107200       0.33454200       0.03675900
Bi      -6.95188000      17.53025000      15.19286000       0.55848800      -0.10051100      -0.03464800
Bi      -9.42849000      17.52127000      18.49476000       0.14023800      -0.38105700      -0.12276000
Bi      -9.28847000      19.49052000      23.07132000       0.09720300      -0.20741800      -0.03549400
Bi      -9.35428000      21.20576000       8.91988000      -0.11514500      -0.40158000      -0.43876100
Bi       2.28466000      19.76246000      10.70410000      -0.08171600       0.09112800      -0.03912000
Bi     -11.27023000      22.16725000      13.03822000       0.26311100      -0.00661200       0.36615200
Bi      -8.93371000      21.38439000      15.04313000      -0.55226700      -0.55366700      -0.48783200
Bi     -11.70936000      22.21793000      19.53464000       0.37651600       0.12339400      -0.22818000
Bi     -10.53577000      23.17496000      26.19385000      -0.34564600       0.16604200       0.44824400
Bi       7.07040000       1.21845000       8.79304000      -0.50013800      -0.06640300      -0.08420800
Bi      -9.05918000      23.70177000      10.50223000       0.08791400       0.63932800       0.20251200
Bi       4.35860000       2.27534000      13.18081000       0.15562800       0.26587300      -0.31721000
Bi       6.81575000       1.32438000      14.74367000       0.38787900      -0.07056300      -0.26242100
Bi       4.62767000       0.10759000      18.14159000      -0.13890800      -0.14667400      -0.11384500
Bi       4.58629000       3.78554000      20.73952000       0.42105600       0.47242900       0.42903900
Bi       4.50715000       5.23217000       9.13902000      -0.12717100       0.06271600      -0.20649200
Bi       2.22736000       4.08527000      10.87290000       0.05544600      -0.45280200       0.04997200
Bi       2.40350000       6.39520000      13.24169000      -0.15761700       0.16198600       0.46089900
Bi       4.48550000       4.87035000      14.94009000       0.06459100      -0.20094400       0.16866400
Bi       0.48645000       3.58009000      19.64510000      -0.42961500       0.28462900       0.19888000
Bi       1.46861000       7.20324000      17.28195000       0.05536300      -0.16817600      -0.43426000
Bi       2.34102000       9.08679000       9.03645000      -0.16746500       0.07768200       0.59642400
Bi      -0.16948000       8.07392000      10.75705000       0.29539400       0.11129300      -0.15241100
Bi      -0.21880000      10.69272000      13.17023000       0.22389500      -0.04054600      -0.24456000
Bi       2.25999000       9.32929000      14.53450000      -0.01198800      -0.29353100      -0.05840700
Bi      -0.96111000       8.68764000      18.30244000      -0.37385500       0.03099300      -0.31153200
Bi       0.50811000      11.43226000      24.14247000      -0.43023300      -0.19834200      -0.20031500
Bi      -0.07108000      13.13055000       9.09359000       0.22499200      -0.00392800      -0.23831100