220
Lattice="13.759364 0.0 0.0 -13.759357 23.831922 0.0 0.0 0.0 37.488127" Properties=species:S:1:pos:R:3:ref_forces:R:3 free_ref_energy=-659.53792503 ref_energy=-659.55206807 magmom=-0.0027931 stress="0.0013471049146393838 0.0005274200041553871 -8.278737704571554e-05 0.0005274200041553871 0.0012912059589079731 0.0006213359919725525 -8.278737704571554e-05 0.0006213359919725525 0.000322336497297115" pbc="T T T"
Bi       2.20417000       1.24453000       9.27128000       0.02700300      -0.29953700       0.00294700
Bi      -0.03606000      23.67696000      10.91354000      -0.08647900      -0.06237300      -0.04941300
Bi       0.06816000       2.27036000      13.42024000      -0.14990500       0.41826900       0.03029000
Bi       2.22745000       1.26425000      15.38678000       0.03256600       0.12595900      -0.09995200
Bi      -1.44364000      23.61532000      19.65189000      -0.03732600      -0.06947600      -0.38565700
Bi       0.86681000       3.95327000      24.77864000      -0.62280500      -0.38290800       0.10091500
Bi      -0.00480000       5.06044000       9.41088000      -0.41739900       0.19393100      -0.40109100
Bi      11.31678000       3.62122000      10.76075000       0.26285900       0.03881300       0.46412700
Bi      -2.60955000       6.78067000      13.28344000       0.48562700      -0.22909600      -0.27645900
Bi      -0.32261000       5.12425000      14.86070000       0.05817300      -0.10383700       0.15387800
Bi      11.46175000       3.90911000      17.79808000       0.11809200       0.84745200      -0.11268000
Bi      -1.05843000       7.10035000      21.94950000       0.07063300       0.27901900      -0.07118100
Bi      -2.37158000       8.84309000       9.44189000      -0.13376200       0.34999200      -0.83523100
Bi       8.85677000       7.90772000      10.84220000       0.18540300      -0.13107900       0.74733400
Bi      -4.59786000      10.59915000      13.74857000      -0.19716600      -0.04864500       0.03222100
Bi      -2.51864000       8.85647000      15.47109000      -0.04786800       0.45420800       0.17808900
Bi      -3.93659000       7.05600000      17.99549000      -0.33889900       0.00284200       0.15638500
Bi      -5.44013000      10.41137000      18.55342000       0.07412400      -0.07803700       0.26904500
Bi      -4.79362000      13.01543000       9.25029000      -0.12693900       0.04222900       0.06135800
Bi       6.57777000      11.72971000      10.93758000       0.30319900       0.02353500      -0.23238600
Bi      -6.90105000      14.89332000      13.36442000       0.03972500      -0.33663600      -0.37415100
Bi      -4.78364000      13.42697000      15.03656000       0.09179600      -0.10404000       0.02089500
Bi       5.62825000      12.37579000      17.70094000       0.40758000       0.17824200      -0.24193400
Bi      -6.80437000      15.46296000      22.34830000      -0.47034600      -0.25422400       0.29095700
Bi      -6.97862000      17.38633000       9.41100000       0.07346600      -0.03584500       0.13205500
Bi       4.34907000      15.97144000      10.69252000       0.40942000      -0.34261400       0.53371000
Bi      -9.57048000      18.21028000      13.43891000       0.19682300       0.42900900      -0.04322700
Bi      -7.16007000      17.34078000      15.08855000       0.40423800      -0.02902700       0.18126900
Bi      -9.10338000      17.80998000      18.28525000       0.17017500      -0.33209900      -0.11374800
Bi      -9.08407000      19.44595000      22.85770000      -0.09040400      -0.31369000       0.20705900
Bi      -9.15980000      21.39431000       9.68625000      -0.29035200      -0.18124300      -0.32808800
Bi       2.14325000      19.95477000      11.04101000       0.61220300      -0.46217100       0.26654300
Bi     -11.57536000      22.47966000      13.78951000      -0.29774700      -0.08202100      -0.31269400
Bi      -9.45547000      20.92722000      15.23668000      -0.06528800      -0.52885300       0.20131500
Bi     -11.37899000      20.32251000      18.24203000       0.50969900       0.00644300      -0.33407400
Bi     -11.43557000      23.45909000      22.92794000      -0.23604300       0.04128000       0.47013400
Bi       6.64005000       1.05282000       9.48897000      -0.19974900      -0.03955900      -0.13152700
Bi       4.26414000       0.09827000      11.29262000       0.21655200       0.16019600      -0.01512000
Bi       4.51792000       2.82826000      14.05980000       0.34164400      -0.05162500      -0.07543900
Bi       7.01437000       1.41153000      15.42853000      -0.10992800       0.09746400      -0.17406500
Bi      -9.97564000      23.24689000      18.36401000       0.08748600       0.07764500       0.29152400
Bi       4.62557000       2.57896000      20.40929000       0.32856700       0.08919600       0.33458800
Bi       4.77713000       4.88204000       9.54780000      -0.39675000       0.43289700      -0.67185100
Bi       2.24154000       3.80243000      10.88854000       0.18765100      -0.15442300       0.67264100
Bi       2.28296000       6.22178000      13.55651000      -0.23807300      -0.03988900      -0.47110300
Bi       4.56240000       5.59785000      15.47545000       0.09344900      -0.26291200       0.25639000
Bi       0.25159000       2.97573000      19.62310000      -0.16771900      -0.26713600      -0.22156200
Bi       3.14628000       6.34235000      18.83225000      -0.10124100       0.13561500      -0.48550500
Bi       2.46244000       8.92592000       9.28356000      -0.30065500       0.31497200      -0.42678500
Bi       0.06836000       7.80483000      10.86372000       0.16566500      -0.28382500       0.58111800
Bi      -0.58002000      10.03908000      13.38073000       0.52063500       0.32974900      -0.03009800
Bi       2.00585000       8.93983000      14.82451000      -0.05411600       0.53959000       0.24815300
Bi       0.52857000       7.65106000      17.49180000      -0.07323100       0.17045600      -0.14087200
Bi       0.43416000      11.22756000      24.03059000      -0.06121800      -0.48595400      -0.23424300
Bi      -0.02140000      13.12507000       9.38940000      -0.45210100      -0.07117900      -0.32702400
Bi      -2.48364000      11.63268000      10.74518000       0.20168700       0.25808200       0.35691700
Bi      -2.40399000      14.64645000      13.44481000      -0.12391400      -0.09988600       0.43369600
Bi      -0.38459000      12.87761000      15.11809000      -0.15022700      -0.01749900       0.03906700
Bi      -2.19213000      11.58890000      18.88018000      -0.34437800       0.39762800       0.46609600
Bi      -1.71627000      14.91159000      23.14032000       0.28845000       0.65730700      -0.05096300
Bi      -2.31352000      17.05958000       9.41177000      -0.14440900       0.01085100      -0.41279100
Bi      -4.66905000      15.71066000      10.89890000      -0.32072000      -0.01815300      -0.10568900
Bi      -4.53513000      18.39530000      13.37671000      -0.37149900      -0.06177100      -0.05981400
Bi      -2.18590000      17.36913000      15.07671000      -0.18605800      -0.54994900       0.13394500
Bi      -3.57681000      16.04898000      18.74862000       0.36743000      -0.22655300      -0.11800500
Bi      -4.00391000      18.92854000      22.17290000       0.05183300       0.58277400       1.15915400
Bi      -5.00542000      20.96754000       9.39227000       0.26808100       0.08773100      -0.06041800
Bi      -7.09802000      19.90246000      11.32453000       0.16130100      -0.34146600       0.10990100
Bi      -7.18712000      22.40294000      13.78015000      -0.09524200       0.54435400      -0.39375800
Bi      -4.82359000      21.00603000      15.02606000       0.38268400       0.07786500       0.08528300
Bi      -6.60406000      19.77007000      18.16540000       0.14823400       0.04348700      -0.22028000
Bi      -6.11046000      23.33825000      21.66432000       0.02889900       0.16347900       0.50856600
Bi      11.36310000       0.91423000       9.26150000      -0.26048400       0.06162300      -0.02116100
Bi      -4.80033000      23.59187000      10.98659000       0.29670800       0.03469900       0.09669600
Bi       9.25619000       2.65603000      13.46262000      -0.15105400      -0.26898100      -0.08443000
Bi      11.41831000       1.08241000      14.89368000       0.30437400      -0.07317400      -0.52340300
Bi      -3.19452000      21.22339000      17.89351000      -0.15741400      -0.02107200       0.42057500
Bi       9.70675000       3.97499000      22.51440000       0.49598800      -0.28003500       0.25305600
Bi       9.07562000       5.21628000       9.42666000      -0.54626400      -0.41170900      -0.08652100
Bi       6.81776000       3.55556000      11.20043000       0.56951000       0.33187900       0.18889500
Bi       6.75447000       6.69518000      13.53831000       0.15583200       0.28384100       0.12208000
Bi       9.27149000       5.31307000      15.04189000      -0.17284800      -0.63098500       0.11168100
Bi       8.63204000       2.53875000      18.12177000      -0.40095100      -0.00462400       0.25512800
Bi       6.85763000       7.52085000      21.94090000      -0.65127400      -0.22673600      -0.07058500
Bi       6.56930000       9.07479000       9.21855000      -0.09393500       0.39015000      -0.19145100
Bi       4.57168000       7.62250000      11.01146000       0.09146600      -0.06718800       0.36535100
Bi       4.48065000      10.48386000      13.32110000      -0.24567100       0.04153900      -0.22571800
Bi       6.57453000       9.64493000      15.30288000       0.47004500      -0.55597600       0.17928200
Bi       3.85669000       9.50243000      18.47853000       0.45050900       0.10421600       0.01828100
Bi       5.05840000      11.55020000      22.43299000      -0.16983100       0.10380000       0.97460800
Bi       4.49642000      13.23750000       9.20752000      -0.10367500      -0.28456800       0.05623300
Bi       2.25400000      11.64107000      10.72605000       0.28109100       0.18411700       0.20663800
Bi       1.72241000      14.79283000      13.94211000       0.10940400       0.34738100      -0.32789200
Bi       4.43099000      13.39702000      14.70573000       0.08648100      -0.29127900       0.25028700
Bi       0.73016000      10.55451000      19.04641000       0.61759400      -0.11270400      -0.33019300
Bi       2.77080000      15.06786000      25.12707000       0.01317700       0.32355100      -0.09597800
Bi       1.99787000      17.24457000       9.37328000      -0.32478600       0.35083600      -0.09835700
Bi      -0.18299000      15.71234000      11.06153000       0.51549700       0.02723300       0.13988600
Bi      -0.17151000      18.68413000      13.33308000       0.43670100       0.14959900      -0.04800400
Bi       2.00066000      17.60144000      15.39253000      -0.34218900      -0.19776700       0.31478700
Bi       1.82962000      14.79330000      19.89908000       0.45305700      -0.14827700       0.23696900
Bi       0.16124000      19.30501000      25.60813000      -0.12997900       0.01291600      -0.17952500
Bi       0.08761000      21.00383000       9.26030000      -0.51835900       0.44024400      -0.47959900
Bi      -2.34622000      19.81219000      10.75006000      -0.27015700       0.03428300       0.26850500
Bi      -2.49601000      22.23491000      13.36204000      -0.07420100       0.19790800      -0.05899400
Bi      -0.29539000      21.13836000      15.19577000       0.09111400       0.02127000       0.07780200
Bi       0.38280000      19.51160000      20.62760000      -0.45633200      -0.29320900       0.51601400
Bi      -1.96665000      23.46594000      24.47158000      -0.25847800       0.14300300      -0.00577900
Li       1.73094000       3.61901000      17.22399000      -0.00472100       0.24090400       0.02150000
Li      -8.00089000      21.39776000      19.97705000      -0.16090900       0.06277500      -0.11742900
Li      -7.62143000      22.73446000      16.77520000       0.00018400      -0.43383500      -0.16508400
Li      10.91308000       1.26157000      17.42077000       0.12622200      -0.54375700       0.55002100
Li      -0.28071000       5.80468000      19.36479000       0.12599700      -0.18864800       0.07105600
Li       7.41080000       6.82871000      16.34422000      -0.07295500       0.16936100       0.13598000
Li       8.30994000       5.05356000      19.79165000      -0.13545600       0.06203200      -0.00104100
Li      11.03297000       2.51258000      20.38984000       0.03723900      -0.09988000      -0.15531200
Li       1.21472000       7.94441000      20.44536000      -0.01558600       0.02380400      -0.18693600
Li       3.69575000      12.43367000      19.64691000      -0.34741600      -0.10595400       0.20693400
Li       8.90416000       8.13600000      20.42150000       0.17028800       0.03335700      -0.24096100
Li      -1.76644000       8.59826000      19.29051000      -0.10117700      -0.11180300      -0.09708600
Li       0.33069000      13.28923000      17.89373000       0.21682100      -0.37900800       0.24478800
Li       1.97284000      11.94546000      13.67803000      -0.12273200      -0.26833600      -0.18625400
Li      -2.10056000      14.29638000      17.20691000      -0.27938600      -0.05118400      -0.28411400
Li      -0.86077000      15.26664000      19.89939000      -0.27289100      -0.15072000      -0.09818800
Li       1.52975000      17.51869000      18.91772000       0.12367400      -0.32192000      -0.09449000
Li       4.92548000      15.00683000      19.16497000      -0.08971400      -0.00076400       0.07041500
Li      -3.28098000      13.83836000      20.99445000       0.05489100      -0.28365200      -0.40612100
Li       2.93919000      14.68425000      16.89541000      -0.00191600       0.20128200       0.17154600
Li     -10.83854000      21.78052000      20.86879000      -0.03215500      -0.43186300      -0.10267300
Li     -10.31783000      18.89554000      20.56891000      -0.31228900       0.09871900      -0.10485300
Li      -4.49296000      18.44197000      16.47940000      -0.09509800      -0.02801300       0.33841000
Li      -1.34096000      18.74410000      17.82320000      -0.34170500      -0.20267200       0.13577900
Li      -8.90330000      23.80030000      21.37329000      -0.14487900       0.05885000       0.06030900
Li      -7.10446000      18.45370000      20.68795000      -0.07510100      -0.08193900      -0.05070300
Li      -5.13618000      20.95632000      20.50746000       0.10175900       0.02970500      -0.25213400
Li      -0.32713000      21.13956000      18.36898000      -0.11344300       0.49127500       0.03392400
Li       2.01660000       0.53740000      20.29751000       0.12442900       0.36409500      -0.25694600
Li       2.45907000       4.23687000      20.26308000       0.10575300      -0.08887000       0.16735300
Li       6.57252000       0.39277000      18.94478000      -0.11172200       0.41110100       0.33780200
Li      -0.01112000      22.37874000      21.66246000       0.02279400      -0.08855800       0.08214500
Li      -0.06756000       1.44619000      21.83385000      -0.16743600      -0.34217000       0.41749300
Li       6.16519000       7.93117000      18.66477000       0.20098300      -0.10193400       0.24417600
Li       5.71614000       3.63119000      18.08189000       0.07213900      -0.01054500      -0.19632100
Li      -4.32738000      23.52482000      19.34697000      -0.05799000       0.13080500      -0.15249600
Li      -0.58038000       4.29207000      21.96562000      -0.14037300      -0.06696400       0.12322800
Li       1.66233000       5.64706000      22.83254000       0.17774600       0.45184800      -0.26388700
Li       7.19095000       5.01796000      23.11910000      -0.05494900      -0.21169600       0.02903700
Li      -3.81708000       6.76948000      23.19784000      -0.24111700       0.26499900      -0.19684700
Li      -1.59693000       9.07867000      23.85089000      -0.07864700      -0.04072400       0.20189100
Li       1.22109000       8.47771000      23.29297000       0.02536300       0.11670000       0.19894000
Li       2.89893000      11.36871000      16.70620000      -0.08304000      -0.03110100      -0.12012300
Li      -0.42655000      12.71415000      21.19779000       0.30554000       0.10043500      -0.34111000
Li       3.00912000      12.25936000      24.62022000      -0.02190200       0.09807500      -0.25997800
Li      -8.74442000      16.75386000      24.36137000       0.15445900       0.07725900      -0.08990800
Li      -4.50141000      16.05881000      21.35757000       0.21120400       0.48980600       0.06578800
Li       1.11570000      14.04654000      23.01199000      -0.05498100      -0.02272300      -0.07310100
Li      -1.97995000      17.26179000      21.09851000      -0.26479200       0.27993300      -0.06200300
Li       0.64506000      16.83273000      22.02867000       0.29919900      -0.10182700      -0.06947200
Li      -4.87304000      13.27196000      17.95537000       0.00522800      -0.00376900       0.12695800
Li      -6.30421000      16.20137000      17.81358000      -0.05881900       0.15681500       0.07786900
Li       0.66567000       0.58547000      17.57824000      -0.19902900      -0.07228000       0.37409900
Li       3.54855000       0.63451000      25.22518000       0.22242500      -0.04922200       0.07194700
Li      -6.83400000      20.91359000      22.74113000       0.19080700      -0.06605400       0.22236900
Li      -4.45969000      18.49406000      19.65956000       0.14943400       0.06281500      -0.83175300
Li       6.05524000       1.94331000      23.29884000      -0.21078300       0.16014900      -0.17102400
Li       9.09213000       4.35019000      25.37586000       0.06016100       0.22102400      -0.17591100
Li       8.92693000       1.68933000      24.29901000       0.15553800      -0.13503700      -0.25064900
Li       0.39733000       1.10863000      24.73025000       0.24035700       0.11652300      -0.02365700
Li       2.76556000       2.53375000      22.73480000      -0.04637200      -0.16681100      -0.18110900
Li       8.04178000       2.27740000      20.95948000      -0.28826100      -0.07327400      -0.05824900
Li      -2.80111000       5.51949000      20.24854000      -0.09748100       0.10909300       0.16285400
Li       9.96039000       2.81872000      27.45336000      -0.10229300      -0.07532600      -0.11270600
Li       2.28925000       6.33650000      25.74952000       0.04028600       0.13066200      -0.15699600
Li       5.94942000      10.11344000      20.45736000       0.15448800      -0.29339100      -0.47374500
Li       7.78181000      10.24494000      22.45387000      -0.39390400      -0.23950100       0.17255500
Li       7.54329000       7.67903000      24.61108000       0.14721500       0.04159400       0.22841000
Li       2.32143000      10.93773000      21.81959000      -0.03224100      -0.01551600      -0.05669200
Li       3.93025000      14.01571000      22.13316000      -0.32833300       0.27826000      -0.32019400
Li      -3.85051000      10.80596000      21.10986000       0.28830300       0.22043700      -0.11449900
Li      -0.69244000      10.00387000      21.43529000       0.02670800       0.01956600       0.11482100
Li       0.33453000      16.52932000      25.06565000       0.00473300      -0.20846900      -0.00887400
Li      -8.97519000      16.69019000      21.60832000      -0.56275000       0.35388500      -0.27911700
Li      -4.46917000      18.98177000      25.01612000      -0.00993100       0.05035900      -0.26743400
Li      -6.73110000      17.35771000      26.54479000       0.30025400       0.07288300       0.01270800
Li      -9.89602000      21.42792000      24.58078000      -0.17216000       0.48361900      -0.18857400
Li      -6.43706000      18.09574000      23.39171000      -0.12332300      -0.13676300       0.07408400
Li      -1.47141000      20.47015000      23.24348000      -0.12412500      -0.25898700       0.26536200
Li      -1.98089000      21.23378000      26.16034000      -0.14065000      -0.09992100      -0.06272100
Li       1.69407000      19.89479000      23.15691000       0.03188100       0.15964300      -0.16004200
Li      -3.18223000      23.74760000      21.95025000       0.10143300       0.12723100      -0.00676200
Li      -2.30480000      20.65262000      20.61777000       0.02421500       0.03091900      -0.31487000
Li      -8.34253000      22.47845000      27.33408000      -0.02499900      -0.02907100      -0.29159500
Li       3.58262000       3.95678000      24.98389000       0.41311900      -0.09864100       0.04244400
Li       0.46963000      22.13934000      24.74444000       0.08732300      -0.15364200      -0.09235300
Li       6.01486000       5.43720000      26.08987000       0.11835000      -0.01884600       0.09246500
Li      -4.59628000      23.34183000      26.19906000       0.30755700       0.13772800       0.06748400
Li      11.73638000       2.57484000      24.39043000      -0.11536800      -0.06913800      -0.09094000
Li       6.78008000       2.30171000      26.40467000      -0.05010400      -0.14738000      -0.21775800
Li       4.81310000       6.65449000      23.79161000      -0.23322400      -0.04275000      -0.17480100
Li      -1.35158000       4.40007000      26.66688000       0.29014800      -0.09234500       0.05734700
Li      -1.82973000       5.39974000      24.18900000       0.19030000       0.11824400      -0.00724000
Li       5.05524000       5.44892000      20.76479000       0.18451900      -0.08211100       0.22389900
Li       3.98907000       8.19733000      21.03221000       0.20932900       0.03728100       0.30601900
Li       4.12565000       9.38877000      24.43165000       0.03704400      -0.02950300      -0.38620000
Li      -3.45269000       6.56558000      26.80551000      -0.20347500       0.06000000      -0.24566900
Li       5.14794000      14.12266000      24.21589000       0.51531700      -0.37172200       0.13579200
Li      -6.90982000      12.80629000      20.37277000      -0.04235900       0.10953700      -0.04259800
Li      -6.00032000      12.99755000      22.91567000       0.14140900      -0.29658200       0.29705400
Li      -4.07577000      10.32944000      24.90233000      -0.08081300      -0.07270200      -0.15756600
Li       0.36061000      13.50195000      25.73029000       0.03055400      -0.00507900      -0.29710800
Li      -2.05680000      17.53415000      24.05378000      -0.01395900       0.38033400      -0.24918900
Li      -2.01358000      12.20206000      23.15405000      -0.39547400      -0.13276400       0.35070000
Li      -2.45970000      18.37463000      26.73190000       0.13936600      -0.00433400       0.19610500
Li       2.75438000      18.01456000      24.93154000      -0.02043000       0.07955900       0.17131900
Li      -4.19020000      15.78795000      24.44067000      -0.25585200       0.03371500      -0.15066300
Li      -5.31378000      20.54458000      26.82517000      -0.13400200      -0.01310500       0.14278100
Li     -11.59456000      20.90121000      26.79698000       0.18904000      -0.13409600       0.13898800
Li      -7.96106000      19.84619000      25.56306000       0.06006600      -0.04325000      -0.09521800
Li      -6.95141000      23.28563000      24.73757000      -0.20910000      -0.12236700      -0.09504700
Li      -4.26192000      21.90106000      23.62558000      -0.03125600      -0.30331900       0.03629600
220
Lattice="13.759364 0.0 0.0 -13.759357 23.831922 0.0 0.0 0.0 37.488127" Properties=species:S:1:pos:R:3:ref_forces:R:3 free_ref_energy=-668.12518936 ref_energy=-668.12194786 magmom=0.6874955 stress="0.0003630810688708809 -0.0009098060607526249 0.00034074270770934474 -0.0009098060607526249 0.0005502389615196163 0.0007462161065632248 0.00034074270770934474 0.0007462161065632248 7.806879614654779e-05" pbc="T T T"
Bi       2.14800000       1.14462000       9.50328000       0.08059200       0.35692700      -0.54816200
Bi      -0.11246000      23.55465000      10.87837000      -0.43786300       0.19989900       0.39179000
Bi      -0.12436000       2.75071000      13.21484000       0.04707200      -0.25483700      -0.09789400
Bi       2.39351000       1.49773000      15.02817000      -0.04342000       0.10982000      -0.50986200
Bi      -1.78757000      23.41608000      21.08301000       0.19044500      -0.00581600       0.00074900
Bi      -0.46170000       3.70216000      25.12171000       0.23872300      -0.13507800       0.22324500
Bi      -0.12779000       5.05155000       8.94076000      -0.29392800       0.32836000      -0.01183200
Bi      11.18056000       3.75100000      10.59517000       0.50235100      -0.03817600      -0.04141800
Bi      -1.79757000       6.54829000      13.10274000       0.06635200      -0.14199200      -0.04743200
Bi       0.39111000       5.26090000      14.95206000       0.14659900       0.31740300      -0.01775000
Bi      11.07399000       3.27703000      17.84399000      -0.30933200       0.41766100       0.06061600
Bi      -2.19443000       7.74087000      22.72815000       0.22358700       0.11224100       0.37979300
Bi      -2.64018000       9.04099000       9.03783000       0.30385500      -0.06647500       0.16949400
Bi       9.26983000       7.30831000      10.82738000      -0.03298200       0.24437000       0.07807100
Bi      -4.42711000      10.29928000      12.94027000      -0.28376800       0.09526900       0.02473000
Bi      -2.17937000       9.16523000      14.62545000       0.02147800      -0.17923900       0.29696000
Bi       9.40601000       6.44777000      18.30705000       0.24541800       0.46265400       0.10292600
Bi      -5.27337000       9.63559000      19.14159000      -0.52243200      -0.44432300       0.11522400
Bi      -4.52518000      12.86204000       9.44951000      -0.35741300      -0.17520500      -0.43045300
Bi       6.81972000      11.31091000      10.83812000       0.22335400       0.23476800      -0.06741100
Bi      -6.91179000      14.49588000      13.12321000       0.27645000       0.06180800      -0.34087600
Bi      -4.91087000      12.78123000      14.75935000       0.10078300      -0.11050900       0.01222500
Bi      -7.00844000      13.09107000      19.48167000       0.26453200       0.64741600      -0.65144300
Bi      -6.76484000      15.70375000      23.44753000       0.28201300       0.10467900       0.24586500
Bi      -7.01196000      16.99376000       9.36178000      -0.07531600      -0.31352900      -0.40438000
Bi       4.51015000      15.54981000      10.93662000      -0.16387000       0.15733100      -0.02741000
Bi      -9.32753000      18.73847000      13.55885000       0.14304000      -0.50609300      -0.20250200
Bi      -7.01959000      16.99454000      14.86970000      -0.14738700       0.03387700       0.30036500
Bi      -9.16898000      17.29296000      18.74693000      -0.08384600      -0.07855400       0.35471500
Bi      -9.21914000      19.57491000      23.15175000      -0.05349100      -0.10313800       0.16344100
Bi      -9.22248000      20.91420000       9.27726000       0.21157000       0.31484900       0.18417000
Bi       2.31457000      19.59816000      10.85226000      -0.05926800      -0.43056200       0.25167100
Bi     -11.56230000      22.28196000      13.38833000       0.40411300      -0.22018500       0.56679600
Bi      -9.17835000      21.17311000      15.28688000      -0.08897500       0.21258500       0.01319500
Bi     -11.33376000      22.36767000      19.37692000      -0.35186400       0.18663200       0.05303800
Bi     -11.19081000      23.77946000      23.78014000      -0.01427400       0.72023200      -0.07394700
Bi       6.57008000       0.99695000       9.16858000       0.33399500      -0.00137700       0.30649900
Bi      -9.35591000      23.65025000      11.00992000       0.22365900      -0.44657500       0.03837000
Bi       4.75538000       2.69177000      13.01372000      -0.31520000      -0.33255000       0.37508900
Bi       7.04205000       1.44158000      14.69889000      -0.68680400      -0.62115500       0.17284100
Bi       4.71330000       0.50302000      17.24054000       0.20091700       0.16293400       0.34005700
Bi       4.35368000       3.72380000      20.90389000       0.20593000       0.42416900      -0.22681600
Bi       4.38393000       5.14705000       9.14616000       0.11934700       0.23092800      -0.55801200
Bi       2.07552000       4.07825000      10.73419000      -0.10789900      -0.56578100       0.59018000
Bi       2.58587000       6.60269000      13.15917000      -0.10759400       0.22154900       0.02431800
Bi       4.52331000       5.02756000      15.01458000       0.02244700      -0.11969700       0.40677700
Bi      -0.04023000       3.65733000      19.79278000      -0.46425300      -0.08196500       0.38899600
Bi       1.92469000       7.08639000      17.31424000       0.13319500      -0.33108500       0.12427500
Bi       2.43733000       9.20736000       9.44877000       0.05213000      -0.05249100      -0.13865500
Bi      -0.10540000       7.75005000      10.52963000      -0.02922000      -0.07804800      -0.22042100
Bi      -0.05140000      10.99738000      13.55141000       0.39604700      -0.16851300      -0.08108800
Bi       2.41476000       9.21024000      14.94614000      -0.12883700      -0.16031400      -0.13731800
Bi      -0.43378000       8.94375000      18.38065000       0.07783600      -0.12560700      -0.42741100
Bi       0.02341000      11.60240000      23.61561000      -0.13787700       0.18815300      -0.04905900
Bi       0.34456000      12.83121000       9.20606000      -0.02018200       0.21228700      -0.08644800