144
Lattice="10.45744 0.0 0.0 0.0 13.584613 0.0 0.0 0.0 29.94997" Properties=species:S:1:pos:R:3:ref_forces:R:3 free_ref_energy=-186.70305424 ref_energy=-186.71006756 magmom=0.0005995 stress="-0.0059506984911809795 -0.0011213495295561862 0.0003623695368305302 -0.0011213495295561862 -0.004557843314648871 0.0005386110300180958 0.0003623695368305302 0.0005386110300180958 -0.0060581585538013105" pbc="T T T"
Zn      10.35796000       1.64160000       7.42992000       0.46170600      -0.34866000      -0.02065000
Zn       2.53538000       1.53563000       7.65611000      -0.48285200       0.22192000      -0.12506800
Zn       5.04467000       1.58063000       7.43883000       0.86537100       0.08261400      -0.05556400
Zn       7.87088000       1.51758000       7.27217000      -0.56896200       0.02243700       0.09091000
Zn       1.16109000       3.84469000       7.76879000       0.37211100      -0.07612600      -0.25088500
Zn       3.92201000       3.82282000       7.34159000      -0.60167500       0.24798800       0.05306300
Zn       6.42520000       3.66490000       7.62738000       0.26376800       0.23958700      -0.35119100
Zn       9.03857000       3.84868000       7.71896000       0.32613400      -0.25003400      -0.30893800
Zn      10.39066000       6.15591000       7.94176000      -0.51616700      -0.10301600      -0.61285800
Zn       2.51230000       6.01667000       7.55818000       0.17898500      -0.09660200      -0.26317300
Zn       5.21385000       6.12023000       7.09079000      -0.51299400      -0.48151000       0.13523500
Zn       7.69277000       5.88561000       7.45268000       0.41853600       0.69733300      -0.09866600
Zn       1.28522000       8.33189000       7.53715000      -0.72713800      -0.24447300      -0.32317200
Zn       3.75518000       8.25574000       7.33006000       0.73010900       0.14533800      -0.26238900
Zn       6.49823000       8.21914000       7.36582000       0.02040300       0.69440400      -0.22616000
Zn       9.04001000       8.39787000       7.43644000       0.14443300      -0.41190000      -0.01951400
Zn      10.41948000      10.52649000       7.54456000      -0.02120900       0.24882600      -0.26937700
Zn       2.56864000      10.51754000       7.24473000       0.25717300       0.44192200      -0.21485600
Zn       5.22075000      10.68992000       6.93930000      -0.29994400      -0.54558100       0.27405300
Zn       7.80896000      10.73176000       7.43195000      -0.18592500      -0.69214500      -0.19968900
Zn       1.32490000      12.81620000       7.14857000      -0.08628700       0.24562900       0.19952700
Zn       3.95214000      13.02998000       7.43441000      -0.75936400      -1.02812800      -0.23087300
Zn       6.43584000      12.85534000       7.30178000       0.41931200       0.48225600      -0.01664500
Zn       9.17985000      12.86104000       7.53217000       0.16384300       0.17911700      -0.27618300
Zn      10.44146000       0.18394000       9.95737000      -0.03986600      -1.30248300      -0.39020300
Zn       2.56795000      13.49101000      10.01850000       0.05401400       0.58761200      -0.38681000
Zn       5.18862000      13.56481000       9.82293000      -0.00939600       0.57086400      -0.26078300
Zn       7.81814000       0.08353000       9.70469000      -0.11711800      -0.19277100       0.01845900
Zn       1.21506000       2.28377000      10.04356000       0.59086900       0.62985300      -0.20043000
Zn       3.89928000       2.40970000       9.96380000      -0.26997200      -0.56996100      -0.42187700
Zn       6.55564000       2.31175000      10.04430000      -0.16369100      -0.36024800      -0.34152700
Zn       9.12820000       2.24072000      10.09111000      -0.23272300       0.70299000       0.03805000
Zn      10.32894000       4.67853000      10.20474000       0.38382900      -0.34889400       0.05943900
Zn       2.55339000       4.63673000      10.05636000      -0.37097500      -0.54264900      -0.14773000
Zn       5.18843000       4.54006000       9.84460000       0.25108600       0.32167100      -0.16380300
Zn       7.86183000       4.50205000       9.94797000      -0.33679600       0.54150300       0.16217400
Zn       1.23485000       6.93999000      10.01927000      -0.19106000      -0.32523200       0.28039500
Zn       3.82968000       6.72133000       9.87894000       0.14108000       0.49104200      -0.48630900
Zn       6.47142000       6.87254000       9.69623000       0.28640000      -0.45263300       0.20610600
Zn       9.11871000       7.04897000      10.36766000       0.10062600      -0.51862600      -0.46098100
Zn      10.32962000       9.24328000      10.28073000       0.36136900      -0.22196400      -0.38530100
Zn       2.45345000       9.02923000       9.73110000       0.39115700       0.21657500      -0.04482000
Zn       5.15437000       9.01359000       9.55788000      -0.01178100       0.17476500      -0.24374500
Zn       7.80732000       9.04492000       9.87005000      -0.42006600       0.33098400      -0.34273300
Zn       1.28262000      11.35876000       9.66428000      -0.74468100       0.16033500       0.00155400
Zn       3.77954000      11.23945000       9.55102000       0.54110500       0.22126500      -0.06058000
Zn       6.44327000      11.41063000       9.77109000       0.24335700      -0.29866800      -0.59122300
Zn       9.01803000      11.28389000       9.81343000       0.34176000       0.53332700      -0.05636500
Zn      10.45617000       1.39860000      12.32412000      -0.08227600       0.49036600       0.48722100
Zn       2.67954000       1.52607000      12.17122000      -0.57601300      -0.52805000       0.15257600
Zn       5.16167000       1.52024000      12.12941000       0.59875600      -0.42087400       0.36112700
Zn       7.83795000       1.52580000      12.42602000       0.09743400       0.20932600       0.08886600
Zn       1.48534000       3.79295000      12.42896000      -0.73573100       0.07048200       0.03154700
Zn       4.05184000       3.80743000      12.29435000      -0.35035800       0.42730800       0.34398100
Zn       6.53399000       3.80368000      12.22145000       0.34623100       0.17543700       0.55071400
Zn       9.17943000       3.83906000      12.70955000      -0.09822400      -0.48889700      -0.19102600
Zn      10.31164000       6.04697000      12.55441000       0.20964000      -0.08226100       0.25689200
Zn       2.61455000       6.06143000      12.33447000      -0.17429400       0.24106600       0.28129900
Zn       5.23287000       6.13657000      11.96272000       0.01311600      -0.07558300       0.74583000
Zn       7.76867000       6.08915000      12.23258000      -0.09828900      -0.29552000       0.32574900
Zn       1.01895000       8.21123000      12.43080000       0.34841900       0.44758900       0.28811000
Zn       3.85087000       8.33218000      11.89118000      -0.22573900       0.11633100       0.77641000
Zn       6.50267000       8.41386000      12.16143000      -0.58621000      -0.21008600      -0.51974400
Zn       8.75998000       8.33374000      13.21613000       0.74383300       0.08205400       0.40404600
Zn      10.34274000      10.55335000      12.51947000      -0.01537100       0.00596600       0.27061700
Zn       2.42575000      10.53237000      11.83922000       0.14535600      -0.10585600       0.58509000
Zn       5.15898000      10.47271000      11.68294000      -0.22481300       0.03504600       0.43178600
Zn       7.71953000      10.49428000      12.09549000       0.62309000       0.51851400       0.05897800
Zn       1.18285000      12.78984000      12.20123000       0.05453900      -0.08487700       0.14906700
Zn       4.08659000      12.67845000      11.98184000      -0.37385200       0.42096800       0.23640000
Zn       6.62200000      12.87093000      12.08140000      -0.69031800      -0.23247600       0.35393500
Zn       9.01050000      12.75303000      12.08108000       0.78816400      -0.00726200       0.44903700
Zn       0.13051000      13.50911000      15.18221000       0.06432200      -0.52526200       0.18113300
Zn       2.64746000       0.36172000      16.20466000       0.08574800      -0.23046500       0.04748800
Zn       5.19907000      13.10806000      14.45940000      -0.04375400       0.39797600       0.06949300
Zn       7.80244000      13.49758000      14.62850000      -0.05110500      -0.42656600       0.17891600
Zn       1.39479000       2.14951000      14.54498000      -0.03972900       0.05954800      -0.18829200
Zn       3.86518000       2.06685000      14.39635000       0.33750100       0.00663600       0.56155500
Zn       6.36122000       2.18569000      14.68656000       0.44386800       0.30729700      -0.20263000
Zn       9.20271000       1.99407000      14.94118000      -0.23338200       0.75632600      -0.27254900
Zn      10.43216000       4.34055000      15.00568000      -0.22568200       0.11081500       0.05783000
Zn       2.50534000       4.80135000      14.90387000       0.64055100      -0.65046100      -0.15699100
Zn       5.27311000       4.97499000      14.67626000      -0.41455000      -0.59243700      -0.05396300
Zn       7.77578000       4.50214000      14.91205000       0.14266800      -0.36732600      -0.22178600
Zn       1.10177000       6.79660000      14.86491000      -0.21375800       0.74391300      -0.11755300
Zn       3.74983000       5.97323000      17.04410000       0.51577900      -0.25041700      -0.23131900
Zn       6.67511000       6.23799000      16.51285000      -0.38014500       0.05657100       0.92147200
Zn       9.05108000       6.62537000      15.86586000       0.65762800       0.23213700      -0.20696900
Zn       0.23809000       9.25103000      15.03292000      -0.24422500      -0.44797000      -0.04285900
Zn       2.74561000       9.49447000      14.35261000       0.26609200      -0.12340100      -0.16518200
Zn       3.87857000       7.15783000      14.47297000       0.00085200       0.15178800      -0.07166300
Zn       6.56298000       7.40344000      14.34625000      -0.08120000      -0.28551900       0.21427800
Zn       2.82210000      12.04007000      14.01742000      -0.07971600       0.16562100       0.46841900
Zn       4.16759000      11.37357000      16.15217000      -0.02325600      -0.08153400       0.11133000
Zn       6.77717000      11.95863000      16.55824000       0.17388100       0.11174500      -0.69135000
Zn       9.15478000      11.16321000      14.83725000      -0.40869500       0.57151600      -0.28716400
Li       0.68871000       2.21842000      16.93750000      -0.39449400       0.20911100       0.12624200
Li       5.52454000       0.99615000      16.71617000      -0.30084800      -0.60723100       0.11802500
Li       8.36241000       1.09024000      17.27366000      -0.12744400      -0.17496200       0.09274300
Li       1.06673000       5.58251000      17.11778000       0.04417400      -0.22803800       0.13661700
Li       6.01768000       3.56373000      17.03302000       0.12941300       0.53891200       0.07454500
Li       8.81685000       4.53997000      17.44611000       0.08149200      -0.23202400      -0.38051600
Li       2.81239000       8.36276000      16.56144000      -0.48382800       0.14401200      -0.04726200
Li       6.08077000      10.62920000      14.09480000       0.00713800      -0.12889700       0.37747700
Li       7.84096000       8.90897000      15.99326000       0.31557100       0.31054300       0.16252000
Li       1.48430000      11.30448000      16.09705000       0.02144100      -0.10143800      -0.09863200
Li       5.85490000      10.28898000      18.07336000       0.05314900      -0.04703400       0.42342400
Li       9.45784000      10.96903000      17.27877000      -0.38220500      -0.09326000       0.37535400
Li      10.04027000       1.45097000      19.90392000       0.01217000      -0.00101500      -0.15052300
Li       0.71264000      13.01915000      18.06609000       0.10875500       0.14074700       0.08926300
Li       7.25808000      12.37696000      19.02925000      -0.08711300       0.14859100       0.06403500
Li       0.56541000       4.39028000      19.74316000      -0.06205400       0.10122200      -0.01961500
Li       3.32024000       3.14031000      16.81325000       0.02457500       0.02611000      -0.19174200
Li       8.12728000       3.87280000      19.85467000      -0.30115800       0.03571900       0.26864900
Li       0.29034000       8.24689000      17.39842000      -0.05537600       0.14604500      -0.23745900
Li       5.17946000       8.72762000      16.27427000      -0.06060500      -0.28230500      -0.24456100
Li       8.76237000       7.11705000      18.72800000      -0.39891100      -0.17365800      -0.04187700
Li       9.49623000      11.43029000      20.49049000       0.23552500       0.28515700       0.06102900
Li       2.93749000      10.35813000      18.49733000      -0.48943700       0.12916100      -0.00082800
Li       7.53364000       9.45096000      20.81810000      -0.30949200       0.17107700      -0.34129600
Li       2.44789000       1.77495000      18.95687000       0.28254000      -0.17498300       0.16925800
Li       3.99372000      12.85015000      18.50827000       0.36488000       0.11221200      -0.31706400
Li       9.18226000       2.70899000      22.28133000      -0.07499400       0.18025000       0.10555500
Li       2.53781000       7.18431000      18.94286000      -0.18400700       0.16066600       0.49552100
Li       5.55285000       6.44152000      19.22950000       0.23798000       0.06389700      -0.33354900
Li       0.42553000       6.42043000      22.09926000      -0.16154400       0.00817600      -0.30849900
Li      10.42980000       8.96813000      20.07972000       0.31106700      -0.26598200       0.04567500
Li       4.44360000       9.12459000      20.19778000       0.15694400      -0.24808500       0.12548100
Li       2.12947000       9.84122000      21.79097000      -0.13822300      -0.19246500      -0.24690200
Li       2.32229000      12.82962000      20.60705000      -0.24547000      -0.02554200       0.28214500
Li       7.18254000      11.55361000      23.01800000       0.04174100       0.09885200      -0.08590900
Li       1.94882000       2.71636000      21.63991000       0.07451800      -0.04551000       0.13891300
Li       2.95521000      11.75032000      23.43390000       0.11858100       0.26889800       0.22990500
Li       4.96389000       0.95266000      22.41565000      -0.11562300      -0.05025200      -0.08948200
Li       7.77613000       0.25580000      21.22254000      -0.09409800       0.18262000       0.10446000
Li       3.48976000       4.63167000      19.49167000      -0.06437400      -0.29804700      -0.17058100
Li       5.89697000       2.00243000      19.66477000      -0.20699800      -0.09540700      -0.05452400
Li       5.09824000       4.19471000      21.74246000       0.22456900      -0.05598600      -0.03006100
Li       3.34716000       6.70332000      21.76848000       0.10194400       0.07812100      -0.06681800
Li       7.52631000       6.78862000      21.54397000      -0.01632800      -0.17757000       0.09999600
Li       9.33833000       9.26659000      22.83010000       0.16247100       0.03316700       0.10019900
Li       4.82093000      11.80055000      21.36608000       0.25675800      -0.11531300      -0.32418700
Li       5.24865000       9.21629000      22.81956000       0.02735000      -0.08422600       0.14293000
Li       0.06428000      13.44863000      22.29761000       0.09520100      -0.09313400       0.14387600
144
Lattice="10.45744 0.0 0.0 0.0 13.584613 0.0 0.0 0.0 29.94997" Properties=species:S:1:pos:R:3:ref_forces:R:3 free_ref_energy=-186.19857645 ref_energy=-186.21783919 magmom=0.5681691 stress="-0.006503652509170355 -1.8375002866600315e-05 0.0007009901314370746 -1.8375002866600315e-05 -0.0051685624995982974 -0.0006062502644152926 0.0007009901314370746 -0.0006062502644152926 -0.003987775078636325" pbc="T T T"
Zn      10.27947000       1.67264000       7.62910000       0.27907800      -0.25058900      -0.34034700
Zn       2.36188000       1.69229000       7.36533000       0.39515600      -0.08257600       0.06294100
Zn       5.11788000       1.59840000       7.17512000      -0.00012900       0.21500500       0.19326300
Zn       7.80391000       1.56880000       7.20048000      -0.32056300       0.03313000       0.18465200
Zn       1.16062000       4.15966000       7.87680000       0.03214700      -0.64921600      -0.35506100
Zn       3.74844000       3.83667000       7.50207000       0.05267800       0.26991500      -0.02385900
Zn       6.32854000       3.86205000       7.48759000       0.35361600       0.04537000      -0.22780000
Zn       9.00604000       3.90776000       7.74272000       0.15712300      -0.24694000      -0.32513300
Zn      10.28748000       6.24187000       7.76300000       0.40344900      -0.12135000      -0.20288000
Zn       2.51445000       6.15280000       7.28282000       0.17484300       0.22318800       0.13837600
Zn       5.12333000       6.21989000       7.66002000      -0.17051000      -0.63943800      -0.32634800
Zn       7.79264000       6.11685000       7.61897000      -0.50960000       0.17239900      -0.25960500
Zn       1.26737000       8.41648000       7.34270000      -0.15302100       0.11307700      -0.02682700
Zn       3.79901000       8.46425000       7.45612000       0.06201700      -0.21014400      -0.14703500
Zn       6.34270000       8.28911000       7.29797000       0.71375200       0.70263700      -0.03852100
Zn       9.13608000       8.36200000       7.19476000      -0.46724500       0.42193900       0.11501200
Zn      10.39649000      10.68531000       7.46407000       0.25146300      -0.11705300      -0.26206400
Zn       2.60127000      10.71480000       7.17891000      -0.43605700       0.13199900       0.14559200
Zn       5.11912000      10.71142000       7.29370000       0.33176700      -0.35495900      -0.07700200
Zn       7.77375000      10.70234000       7.33289000      -0.16327200      -0.62231100      -0.17489000
Zn       1.34255000      13.00319000       6.88612000      -0.40857200      -0.13283200       0.43298600
Zn       3.88599000      13.02198000       7.48592000      -0.64006800      -0.06147400      -0.12101500
Zn       6.34922000      12.95052000       7.70296000       0.75931200       0.21876200      -0.60270700
Zn       9.07413000      12.83705000       7.37009000       0.15078900       0.56297000      -0.00387500
Zn       0.04316000       0.02043000       9.93984000      -0.68813200       0.31054600      -0.37718100
Zn       2.50811000       0.00867000       9.98675000       0.56919300       0.27536100      -0.94866900
Zn       5.26414000       0.08988000       9.97432000      -0.27388600       0.05203000      -0.35670300
Zn       7.97103000      13.51564000       9.96692000      -0.52807500       0.19936700      -0.16829900
Zn       1.27905000       2.43610000       9.78326000       0.03838600      -0.22062700       0.24635000
Zn       3.89001000       2.41082000       9.95871000       0.04393100      -0.15590800      -0.20895300
Zn       6.48853000       2.26295000       9.76922000       0.06713600      -0.08452100       0.16334200
Zn       9.05650000       2.22618000      10.01359000       0.08625900       0.27476300       0.08256300
Zn      10.39056000       4.61680000      10.40425000      -0.01501800      -0.68546700      -0.67177000
Zn       2.64433000       4.74061000      10.20881000      -0.07351000      -0.49433800      -0.27757200
Zn       5.30955000       4.62261000       9.87421000      -0.84847100      -0.20950500       0.15093000
Zn       7.75560000       4.48421000       9.98431000       0.31415600      -0.07046500       0.24338900
Zn       1.15276000       6.80962000      10.19604000       0.27338800       0.25740000      -0.24918400
Zn       3.81331000       6.89893000       9.90631000       0.14243200      -0.09851700      -0.02678700
Zn       6.52474000       6.82689000      10.00284000       0.00786100       0.19893400      -0.19379300
Zn       9.04476000       6.65915000      10.14309000       0.02103200       0.88411500       0.02810300
Zn      10.41184000       9.06220000       9.94579000      -0.22828400      -0.16350900      -0.01285800
Zn       2.44742000       9.00500000       9.82035000       0.31950200       0.56572500      -0.08875800
Zn       5.18851000       9.09684000       9.88970000      -0.22149100       0.15112000      -0.50343700
Zn       7.87073000       9.00787000       9.73996000      -0.18213000      -0.33743300      -0.00995600
Zn       1.15485000      11.41756000       9.81810000       0.54229500      -0.58834700      -0.18393500
Zn       3.99128000      11.41280000       9.73965000      -0.56814600      -0.25106600       0.01935800
Zn       6.54367000      11.24946000       9.64783000      -0.16217700       0.19594400       0.32919300
Zn       9.07076000      11.22267000       9.88961000       0.26748800       0.34411900       0.02393800
Zn      10.38886000       1.57259000      12.21574000      -0.24438900      -0.23134700      -0.06983100
Zn       2.57630000       1.52387000      12.07896000      -0.01695800       0.37597200       0.46935300
Zn       5.09735000       1.43038000      12.29581000       0.33231900       0.25787300       0.15503600
Zn       7.76699000       1.38128000      12.52210000       0.07180300       0.11678200      -0.07050700
Zn       1.30882000       3.85869000      12.43343000      -0.08208200      -0.52619300       0.20366200
Zn       3.90281000       3.86277000      12.36302000       0.39113900      -0.35437100       0.11485100
Zn       6.55828000       3.62244000      12.43484000      -0.39943800       0.38115100      -0.05949300
Zn       9.07883000       3.67233000      12.47547000       0.16592900       0.19026400       0.15641100
Zn      10.45386000       6.05678000      12.57256000      -0.14614100       0.36040100       0.44613300
Zn       2.61644000       6.03506000      12.60447000       0.19272100       0.51703600      -0.27670700
Zn       5.38816000       6.04006000      12.17498000      -0.56310800      -0.31360200       0.27255000
Zn       7.86699000       6.02750000      12.53279000      -0.08191100      -0.25953400      -0.08871600
Zn       1.24236000       8.45088000      12.41208000      -0.22495800      -0.43116900       0.18895000
Zn       3.86851000       8.39186000      12.17100000      -0.93434200      -0.20355200       0.19329300
Zn       6.22553000       8.45344000      12.09745000       1.22610600      -0.54736800       0.56814800
Zn       8.98798000       8.26475000      12.56260000       0.54252700       0.38086800      -0.74495700
Zn      10.34977000      10.73594000      12.36203000       0.02309800      -0.45556200       0.06339700
Zn       2.54345000      10.53026000      12.00006000      -0.29032200       0.61647400       0.23365100
Zn       5.02140000      10.64457000      12.41194000       0.29095900       0.15731100       0.39481400
Zn       7.65241000      10.45657000      12.05528000       0.53531000       0.28361100      -0.05462700
Zn       1.19932000      13.01201000      12.15810000      -0.10295000      -0.64060600       0.46748400
Zn       3.78489000      12.77826000      12.05056000       0.00735500       0.11356600       0.52849900
Zn       6.46507000      12.76384000      12.04843000      -0.01084100      -0.06200400       0.30122200
Zn       8.97663000      12.81599000      12.55226000       0.32677800      -0.06769500       0.10786400
Zn       0.14237000      13.42960000      15.74123000      -0.06763800       0.59359600       0.23698200
Zn       2.68330000       0.34005000      15.65757000       0.21149800      -0.18826800       0.27575100
Zn       5.20127000      13.22328000      14.36378000      -0.07273200      -0.02811000      -0.01900500
Zn       7.91637000      13.48616000      15.22780000      -0.41681300      -0.16516600      -0.10700100
Zn       1.18986000       1.96436000      14.36302000       0.24246500       0.02369800       0.15147200
Zn       3.88834000       2.25351000      14.62375000       0.30005300       0.09206700       0.03706100
Zn       6.56367000       2.15046000      14.75643000      -0.16918400      -0.08428400      -0.03279600
Zn       9.18061000       2.10406000      15.18280000      -0.08072500       0.15075100       0.05757500
Zn       0.05875000       4.33361000      14.98909000      -0.78405100       0.07558400      -0.04805100
Zn       2.40793000       4.44365000      14.86473000       1.21776200      -0.19694900       0.24956700
Zn       5.20439000       4.61452000      14.69748000       0.00975100      -0.14702800       0.07286400
Zn       7.92560000       4.45216000      14.72392000      -0.23199500       0.29022600       0.24487700
Zn       1.70876000       6.90332000      14.86685000      -0.36886000       0.40309700       0.06892300
Zn       3.88588000       5.86058000      16.71665000       0.50091600      -0.15832500      -0.48458800
Zn       6.61187000       6.30440000      16.33538000       0.18656300      -0.13854700      -0.14014700
Zn       9.52213000       6.68343000      15.53622000      -0.29227800      -0.05557400       0.19912100
Zn      10.25559000       9.03811000      14.67368000       0.32239400      -0.10432400      -0.11615000
Zn       2.64656000       9.41507000      14.77443000       0.12045200      -0.08907100      -0.06334100
Zn       4.35537000       7.13219000      14.30642000      -0.04049000      -0.30115600       0.60991500
Zn       7.41744000       7.87279000      14.38264000      -0.25390500      -0.00260200       0.72520300
Zn       1.54524000      11.77155000      14.39338000       0.32133200      -0.11352500      -0.32711100
Zn       3.80544000      11.61755000      15.85552000       0.02264300      -0.32327400       0.15399700
Zn       6.90540000      11.09388000      14.40339000      -0.44714900       0.02858100       0.12932800
Zn       9.34143000      11.33662000      14.86961000       0.19753800       0.00521500       0.04615100
Li       0.83250000       2.43126000      16.94523000      -0.05615100      -0.16104500       0.10689500
Li       5.41915000       0.74867000      16.58599000      -0.32848100       0.02103100       0.02755700
Li       7.85647000       1.18349000      17.57139000       0.33435800       0.07130100      -0.05168700
Li       1.32686000       5.53851000      17.14457000      -0.30685300      -0.08475100       0.22125500
Li       6.42333000       3.49199000      16.98833000      -0.09492000       0.24629600      -0.24010600
Li       8.96487000       4.55138000      17.22641000       0.03957900      -0.06768900      -0.17880000
Li       2.66198000       8.01178000      17.03730000       0.54689100       0.08321900      -0.10712200
Li       5.36340000       9.08018000      15.37001000      -0.15788500       0.48476600       0.13197800
Li       8.42724000       9.28708000      16.71646000      -0.52419000       0.07113100      -0.41818400
Li       1.02852000      10.64578000      16.58624000       0.03695300       0.43953300      -0.01634300
Li       6.30025000      11.31463000      16.86052000       0.11634200       0.21536200       0.08864000
Li       9.09453000      12.15699000      17.30665000      -0.18454700      -0.04866100       0.26282900
Li      10.27075000       0.65517000      19.26970000      -0.00190300      -0.23106300       0.01689000
Li       2.05517000      12.69526000      17.94432000      -0.53461400       0.14721200      -0.10712500
Li       7.28814000      12.57449000      19.74256000       0.04014700       0.19610900      -0.11158200
Li       1.40991000       4.11420000      20.12657000      -0.17786700      -0.20820000      -0.17345500
Li       3.56380000       3.26951000      17.33727000       0.05443000      -0.16457400       0.06984000
Li       9.02082000       3.19946000      19.67133000      -0.12765800       0.14215300       0.26935300
Li       0.34880000       8.43465000      17.04931000      -0.24613300      -0.55205700       0.31211900
Li       5.33753000       7.90495000      17.90829000       0.14331000      -0.04473300       0.14564100
Li       8.62557000       7.07129000      18.29836000      -0.21681800       0.00029000       0.22909400
Li       9.68263000      10.47074000      19.43967000       0.06677600      -0.12731400      -0.01530000
Li       3.56128000      10.20106000      18.16799000       0.10321100       0.13072100       0.11474900
Li       6.56268000       9.79621000      19.59386000       0.10956500      -0.01015000       0.07339400
Li       2.87694000       1.21365000      19.89253000      -0.11653200       0.07153400      -0.13663400
Li       4.49727000      12.76526000      18.36286000       0.29243100       0.03981900       0.44632200
Li       9.93473000       4.21950000      22.65711000       0.11429700      -0.08077500      -0.11971500
Li       3.48861000       6.13894000      19.16918000      -0.16185800       0.11816100      -0.01045200
Li       6.26823000       5.26816000      18.96837000       0.02209400      -0.04478800      -0.04234400
Li      10.27601000       6.57152000      20.81060000      -0.02427900       0.08292700      -0.16237300
Li       1.69566000       8.80898000      19.75976000      -0.34727000      -0.16127100      -0.22789500
Li       4.13409000       8.59780000      20.69839000       0.11016400       0.04116700      -0.17146300
Li       1.40955000       9.55122000      22.36905000       0.08586000      -0.25612100       0.14476900
Li       1.62353000      11.69638000      20.67956000      -0.00936900       0.30281400      -0.18222900
Li       6.67458000      12.00305000      22.36888000       0.07977400      -0.34069000       0.22397700