144
Lattice="10.45744 0.0 0.0 0.0 13.584613 0.0 0.0 0.0 29.94997" Properties=species:S:1:pos:R:3:ref_forces:R:3 free_ref_energy=-184.30127561 ref_energy=-184.30965798 magmom=4.2686638 stress="-0.005352580913156713 -0.00023615373928691897 0.0006902422527223037 -0.00023615373928691897 -0.004393005058634295 0.00032003962193878995 0.0006902422527223037 0.00032003962193878995 -0.004190031181860571" pbc="T T T"
Zn      10.29304000       1.61498000       7.61725000       0.49762500      -0.47780600      -0.34115000
Zn       2.55402000       1.47985000       7.36065000      -0.08444000       0.23327100      -0.04031500
Zn       5.18801000       1.50246000       7.51102000      -0.32670500       0.41534400      -0.14737600
Zn       7.70173000       1.56071000       7.81821000      -0.18218800       0.28438700      -0.32916400
Zn       1.29499000       3.72813000       7.25244000      -0.09473900      -0.06536400       0.10918200
Zn       3.92885000       3.81831000       7.57022000      -0.27167500      -0.38202500      -0.24259300
Zn       6.42478000       3.84206000       7.76076000       0.37092400      -0.09522600      -0.36338200
Zn       9.07022000       3.78651000       7.49308000      -0.39106800       0.04149800      -0.15493800
Zn      10.30306000       5.94870000       7.31454000       0.42489800       0.36703800      -0.05944000
Zn       2.52110000       5.90925000       7.74598000      -0.08996000       0.51419700      -0.62342300
Zn       5.18073000       6.10363000       7.25952000      -0.38753100      -0.13347900       0.11676600
Zn       7.76112000       6.11247000       7.38658000      -0.17365300      -0.34986300       0.02730500
Zn       1.11265000       8.21531000       7.49939000       0.24963900       0.11476100      -0.11189100
Zn       3.71599000       8.35798000       7.61704000       0.27836700      -0.38901600      -0.17825200
Zn       6.34948000       8.28590000       7.55349000       0.06920200       0.41252700      -0.15846200
Zn       9.04911000       8.28402000       7.57781000      -0.05526300       0.44486900      -0.24976000
Zn      10.30126000      10.72724000       7.44218000      -0.45908800      -0.58145600       0.00705600
Zn       2.40123000      10.46968000       7.40255000       0.22605500       0.26350800      -0.06263100
Zn       5.08373000      10.70187000       7.55986000      -0.11606600      -0.73686900      -0.13274600
Zn       7.65698000      10.52926000       7.52928000       0.30216000       0.24037900      -0.11227300
Zn       1.23395000      12.76635000       7.25489000      -0.22792600       0.50804200       0.00933100
Zn       3.82892000      12.82338000       7.11828000      -0.27637100       0.04212700       0.11290800
Zn       6.35696000      12.86068000       7.28752000       0.34946300       0.01194900       0.11308800
Zn       8.84095000      12.94985000       7.69086000       0.62101900      -0.60745300      -0.39143700
Zn      10.39723000       0.00252000       9.76647000      -0.21809300       0.08995700       0.22613600
Zn       2.51255000      13.51803000       9.56838000       0.26142700       0.21717600       0.19986000
Zn       5.13195000       0.09877000       9.80120000       0.17508100      -0.42918700       0.00817400
Zn       7.72066000      13.57875000      10.04424000       0.06078700       0.42363600       0.06974300
Zn       1.27171000       2.26877000      10.04285000      -0.19435200      -0.48224800      -0.38954400
Zn       3.81709000       2.20523000      10.07330000       0.07553500      -0.00353200      -0.46907900
Zn       6.53793000       2.49467000      10.24087000       0.11297800      -0.68610100      -0.67461500
Zn       9.19006000       2.42035000       9.96813000      -0.19841500      -0.52782200       0.21549200
Zn      10.39685000       4.64383000       9.74911000       0.21944200      -0.50463900       0.27015200
Zn       2.50625000       4.36919000       9.93101000       0.05496300       0.52620000       0.01419900
Zn       5.14670000       4.58332000       9.96903000       0.08892000      -0.26465100      -0.05051600
Zn       7.89226000       4.59226000      10.01416000      -0.29890700       0.44710100      -0.10366400
Zn       1.15796000       6.76141000       9.93931000       0.44864100       0.35746400       0.01237900
Zn       3.77131000       6.64094000       9.91515000       0.10744700       0.62186900      -0.09465900
Zn       6.38833000       6.77055000       9.87862000       0.43630700       0.15537300       0.08095300
Zn       9.14754000       6.84146000       9.87529000      -0.64219600       0.24750000       0.33076600
Zn      10.41140000       9.13281000       9.93999000      -0.39433000      -0.31616800      -0.01648000
Zn       2.53727000       9.03562000      10.03918000       0.00269600      -0.39330300      -0.73665700
Zn       5.13807000       9.07074000       9.98863000      -0.15899100      -0.10005200      -0.32600100
Zn       7.73231000       9.10317000       9.88496000       0.24180000      -0.31453500       0.10145100
Zn       1.19141000      11.26892000       9.82372000       0.08792500       0.16030800      -0.18725400
Zn       3.85949000      11.34974000       9.93578000      -0.09244900       0.05402800      -0.41544200
Zn       6.37113000      11.31235000       9.98518000       0.16747600       0.37241000      -0.16216800
Zn       8.98285000      11.38579000      10.11762000       0.43520900      -0.11096300      -0.34704800
Zn       0.03153000       1.51199000      12.31609000      -0.31191500      -0.67887900      -0.03074400
Zn       2.58623000       1.42944000      12.38253000       0.19723800       0.07703800      -0.13919100
Zn       5.25580000       1.44696000      12.10545000      -0.29160500       0.29529700       0.79185700
Zn       7.96080000       1.57946000      12.35329000      -0.37669100      -0.27365300       0.24731500
Zn       1.19614000       3.74447000      12.26351000       0.59952600       0.34166500       0.17715400
Zn       3.88070000       3.76326000      12.18983000      -0.19762700      -0.12536400       0.42354200
Zn       6.58719000       3.94525000      12.37057000      -0.09808100      -0.54589700       0.12477700
Zn       9.21925000       3.73167000      12.46374000      -0.49871600       0.30493900       0.13593700
Zn      10.36613000       5.96984000      12.56626000       0.11958200       0.39198300      -0.00296600
Zn       2.49364000       6.00631000      12.20900000       0.04142800      -0.38045100       0.44005800
Zn       5.12392000       6.03053000      12.30067000       0.40091000       0.21190200      -0.61070600
Zn       7.81985000       6.13309000      12.30385000       0.00039700       0.25257400       0.00705500
Zn       1.34903000       8.20884000      12.26591000      -0.43763200       0.30144100       0.55059000
Zn       3.96441000       8.13583000      12.15229000      -0.67819900       0.59154900       0.12783200
Zn       6.38494000       8.36292000      12.16765000       0.69376600      -0.08841900       0.20201500
Zn       9.18309000       8.29352000      12.42862000      -0.01660100       0.14101400      -0.11498300
Zn       0.06884000      10.59166000      12.33458000      -0.40375000      -0.15689600       0.13497100
Zn       2.67352000      10.48554000      12.02547000      -0.38678500       0.17795200       0.71261100
Zn       5.15956000      10.67403000      12.57767000       0.20491300      -0.72768900       0.09947100
Zn       7.78058000      10.56789000      12.23041000       0.19553300      -0.18956700       0.30295300
Zn       1.35722000      12.84001000      11.87510000      -0.40107200       0.05955200       0.63152700
Zn       3.88336000      12.68768000      12.22404000      -0.18281600       0.91684200       0.14464400
Zn       6.52672000      12.90685000      12.27476000       0.13884200      -0.29526700       0.17268300
Zn       9.11412000      12.85101000      12.55734000       0.36626500       0.05751900      -0.01313200
Zn       0.00686000       0.21180000      15.81448000      -0.02227300      -0.05033000      -0.02865200
Zn       2.57305000       0.14749000      14.69240000       0.13019400      -0.39362000      -0.04383800
Zn       5.17039000      13.51772000      14.46152000       0.24653400      -0.28650600      -0.20234500
Zn       7.79156000      13.51140000      15.01295000       0.11869000       0.28003200       0.02878200
Zn       1.14299000       2.22035000      14.56170000       0.05739700       0.30311200       0.10030100
Zn       3.87183000       2.33447000      14.58016000       0.34777800       0.26256200       0.04648700
Zn       6.48598000       2.16060000      14.63699000      -0.15622800       0.12624500      -0.12315800
Zn       8.94987000       2.30026000      15.27322000       0.31441400       0.12332300      -0.07920300
Zn      10.42061000       4.59427000      14.96571000      -0.33490400      -0.35537500      -0.10572800
Zn       2.56400000       4.55504000      14.84617000      -0.06639900      -0.04643600       0.10290700
Zn       5.09807000       4.78535000      14.34413000       0.08001600      -0.40506300       1.08100300
Zn       7.77247000       4.56435000      14.62121000      -0.08911100       0.32949600       0.45394700
Zn       1.32188000       6.81477000      14.87976000       0.29098500       0.43286500      -0.23425000
Zn       3.94957000       5.87963000      16.73249000       0.03282500      -0.10071200      -0.31499700
Zn       6.43611000       6.55476000      16.47863000       0.55726700      -0.00734400      -0.34875000
Zn       9.19059000       6.78627000      15.77719000      -0.18492300      -0.20446100       0.07132300
Zn       0.01312000       9.03877000      14.80158000       0.00507800       0.28408400      -0.06306100
Zn       3.27267000       9.37397000      14.28224000      -0.32733700       0.37546000       0.46642500
Zn       4.84105000       7.41814000      14.59619000      -0.16398500      -0.44413100      -0.16671500
Zn       7.57370000       8.25301000      14.45823000      -0.23530200      -0.00533900      -0.03408900
Zn       1.42189000      11.56147000      14.35358000       0.29009000      -0.38801300       0.21646600
Zn       4.08294000      11.51211000      15.77268000      -0.27003600       0.07074300      -0.18099800
Zn       6.74730000      11.14775000      14.54050000      -0.04239200      -0.21647100       0.05386300
Zn       9.38459000      11.52109000      14.86538000      -0.11330800      -0.39628800       0.21602700
Li       0.56999000       2.75104000      16.96963000      -0.14152700      -0.12148300       0.07110500
Li       4.50443000       0.78587000      16.63109000       0.45253100      -0.04361300       0.39049000
Li       7.68595000       1.51096000      17.50512000      -0.10922500      -0.10128800       0.01889900
Li       1.19174000       5.46102000      17.09238000       0.09491400       0.21782100       0.30353800
Li       5.92449000       3.68116000      16.60577000      -0.02623300       0.20909700       0.11884500
Li       8.57800000       4.59662000      17.27755000       0.19151200       0.03754000      -0.05427300
Li       2.81918000       8.33037000      16.62269000       0.12315900       0.15479600      -0.16553100
Li       5.56155000       9.23620000      16.00259000      -0.19393700       0.32308600       0.25720300
Li       8.13761000       9.54877000      16.53014000       0.44682800       0.13788900       0.12911100
Li       0.81034000      10.89220000      16.98145000       0.27640800       0.08128000      -0.37268500
Li       6.58003000      11.94890000      16.81636000      -0.41144100       0.11232600       0.36711400
Li       9.07659000      12.48232000      17.50983000      -0.07601400      -0.06473800       0.15834700
Li       0.19554000       0.90186000      18.84541000      -0.33121300      -0.21361900       0.36200900
Li       2.16021000      13.47151000      17.19675000      -0.01518400      -0.28052400       0.21382400
Li       8.00803000      12.96135000      20.58666000      -0.12099100       0.04736700      -0.21602600
Li       1.33278000       3.71410000      19.87603000      -0.34280800       0.28409000      -0.02015100
Li       3.33074000       3.16104000      17.19901000      -0.21400200       0.20028300       0.04335900
Li       8.44435000       3.09579000      20.18862000       0.12407200      -0.08829700      -0.14551700
Li       0.28793000       8.13240000      17.26649000      -0.07030400       0.04664100       0.17404600
Li       5.00780000       7.82612000      18.47468000       0.15930900       0.15882100      -0.11036200
Li       8.25389000       7.51244000      18.37427000      -0.22103400      -0.07821700       0.09066500
Li      10.13603000      10.38283000      19.46731000       0.01384000      -0.11311500       0.22859500
Li       3.82685000      10.81730000      18.28496000       0.05270100      -0.06884400       0.09316000
Li       7.06023000      10.15118000      19.46849000      -0.15677400       0.16967600      -0.02680300
Li       2.85933000       1.49673000      19.64365000       0.22462600      -0.24885400       0.07228300
Li       5.36583000      13.17169000      19.20187000      -0.03164000       0.10488200       0.01656000
Li       9.93045000       4.75799000      22.48207000       0.15822800      -0.07612900      -0.29973200
Li       3.41345000       5.71191000      19.17162000      -0.25885700      -0.19662200       0.24390500
Li       6.20545000       5.48229000      18.80886000       0.07563400      -0.25520900       0.39720500
Li      10.42894000       6.86067000      20.06378000      -0.00478700      -0.24203400      -0.02961200
Li       2.23680000       8.48760000      19.48542000      -0.17132400       0.24781100      -0.22153100
Li       4.49991000       8.98819000      20.89766000       0.15638700       0.24666700      -0.10389200
Li       1.94122000       9.67247000      22.23261000      -0.09088100       0.24497600      -0.16685900
Li       2.17463000      12.27067000      20.32123000       0.04395300      -0.06785800      -0.05544500
Li       7.31602000      11.57801000      23.32250000       0.02865900       0.06134100      -0.28956700
Li       1.21104000       1.53860000      22.02762000      -0.07810800       0.07743800      -0.17944200
Li       2.76142000      12.80712000      23.28588000       0.06142600      -0.03090800      -0.13139400
Li       5.51895000       0.94429000      22.15195000      -0.05007200       0.05399400      -0.17394900
Li       8.65601000       1.27050000      22.77905000      -0.04587500       0.09716700      -0.17828400
Li       3.48108000       3.83487000      21.88347000       0.07568700      -0.02160000      -0.07006700
Li       5.22296000       2.82588000      19.55733000       0.28850400       0.05953800       0.06918300
Li       6.85224000       3.92409000      22.42555000      -0.13747200       0.00550300      -0.20589000
Li       2.50408000       6.89352000      21.58947000      -0.11754000      -0.28669100       0.30377500
Li       5.24503000       6.44400000      21.72293000       0.28255300      -0.02325700      -0.25589500
Li       8.63014000       8.82698000      21.61866000      -0.09297100      -0.00876100       0.00851400
Li       4.95895000      11.69090000      21.78854000      -0.07061500      -0.22283000      -0.24001700
Li       4.86931000       9.00087000      23.60104000       0.02780400       0.14952800      -0.15479400
Li      10.30742000      12.47820000      22.07133000       0.04853200      -0.23724400      -0.04362000
144
Lattice="10.45744 0.0 0.0 0.0 13.584613 0.0 0.0 0.0 29.94997" Properties=species:S:1:pos:R:3:ref_forces:R:3 free_ref_energy=-184.49546966 ref_energy=-184.51382465 magmom=3.2401561 stress="-0.00560765890811331 -6.618496277086607e-05 -0.0003608341255855629 -6.618496277086607e-05 -0.00395658001602516 0.00030231373602128154 -0.0003608341255855629 0.00030231373602128154 -0.002288530460623733" pbc="T T T"
Zn      10.44381000       1.41546000       7.71654000       0.18700700       0.12126100      -0.45609000
Zn       2.68908000       1.42956000       7.44816000       0.04568200       0.48084300      -0.01462800
Zn       5.31271000       1.56828000       7.35537000      -0.24685100      -0.03762300       0.13338200
Zn       7.86376000       1.52250000       7.42846000       0.12346200      -0.17881900       0.05898500
Zn       1.35957000       3.59310000       7.60883000      -0.10425000       0.44129600      -0.07263500
Zn       3.97540000       3.84518000       7.44439000      -0.05232500      -0.16638600      -0.06524800
Zn       6.69745000       3.78647000       7.42956000      -0.62971200       0.09341700      -0.05934000
Zn       9.20330000       3.83659000       7.66761000       0.39739500      -0.37526300      -0.27187300
Zn      10.42277000       6.03800000       7.42273000      -0.19568600      -0.10346300       0.04479000
Zn       2.45170000       5.98685000       7.54966000       0.72432800      -0.40036900      -0.23250700
Zn       5.36596000       6.08904000       7.11731000      -0.35294100      -0.03814900       0.16267200
Zn       7.90432000       6.08159000       7.59191000      -0.15578400       0.44371500      -0.31720600
Zn       1.29062000       8.16054000       7.28873000      -0.29978800       0.90714600      -0.06092700
Zn       3.84099000       8.26503000       7.18642000       0.23688600      -0.02089000      -0.01187000
Zn       6.55156000       8.42150000       7.21810000      -0.14842600      -0.46382300      -0.00984600
Zn       9.07663000       8.45400000       7.51841000       0.40434300      -0.72241600      -0.08246400
Zn      10.36128000      10.60902000       7.47081000       0.80132400      -0.08839800      -0.07367000
Zn       2.57683000      10.59738000       7.33218000      -0.03479200      -0.18358500      -0.03269300
Zn       5.20736000      10.52946000       7.36748000      -0.14630100       0.35075200      -0.00434200
Zn       7.86292000      10.64068000       7.45631000      -0.66035200      -0.07838200       0.05365400
Zn       1.39758000      12.90976000       7.12588000      -0.40805800      -0.48036700       0.25771900
Zn       3.95177000      12.84288000       7.69204000      -0.03444100      -0.24850800      -0.34202200
Zn       6.48455000      12.84744000       7.69953000       0.27564800       0.01804500      -0.16312200
Zn       9.08635000      12.75825000       7.55514000       0.17393200       0.70143400      -0.03729300
Zn      10.39075000      13.47781000       9.85565000       0.29367500       0.06093800       0.08359300
Zn       2.64065000       0.01461000       9.95539000      -0.59071600      -0.25614000      -0.22279000
Zn       5.21480000      13.57673000      10.02462000       0.32600400       0.19690100      -0.05234900
Zn       7.78614000       0.03257000      10.25836000       0.04958000       0.08077300      -0.54452700
Zn       1.37364000       2.26897000      10.14776000      -0.20161000      -0.10690600      -0.51742400
Zn       3.93169000       2.17447000       9.98631000       0.27253200       0.42704500      -0.17905400
Zn       6.65406000       2.27669000      10.08586000      -0.18672600       0.23945600      -0.02411900
Zn       9.24917000       2.29639000       9.88103000      -0.34357100       0.14988200       0.35348900
Zn       0.12661000       4.61049000      10.18490000      -0.39724200      -0.17089500      -0.47864800
Zn       2.74215000       4.52976000      10.03744000      -0.33133200      -0.08956400      -0.35830400
Zn       5.26839000       4.44266000       9.76858000       0.29271500       0.07189600      -0.01072700
Zn       7.92748000       4.68147000       9.81373000      -0.19023800      -0.48533200       0.48583100
Zn       1.24518000       6.90053000       9.91680000       0.06337200      -0.81008800      -0.25439900
Zn       3.85350000       6.77627000       9.63696000       0.22883900      -0.25794300      -0.16763200
Zn       6.44008000       6.87025000       9.85210000       0.35856500      -0.66058800      -0.36237800
Zn       9.19390000       6.88726000      10.10779000      -0.33740500      -0.21143100      -0.23801500
Zn      10.40887000       9.07689000      10.01192000      -0.29082200       0.40480400      -0.10871900
Zn       2.51833000       8.95202000       9.70149000       0.33500000       0.68288900      -0.25727200
Zn       5.15749000       9.00152000       9.64612000      -0.20728900       0.48049000       0.04119600
Zn       7.71183000       9.03732000       9.90180000       0.55121400       0.41648100      -0.04807600
Zn       1.31628000      11.20660000       9.74355000      -0.25987300       0.60387300      -0.06838800
Zn       3.93005000      11.34975000      10.08301000      -0.19407600      -0.47936700      -0.57710600
Zn       6.41609000      11.27570000      10.02241000       0.32841300      -0.00765400      -0.20723800
Zn       9.05105000      11.33474000      10.33001000       0.38728100      -0.37065000      -0.82182300
Zn      10.38805000       1.50581000      12.26380000      -0.05233400       0.24824500       0.28272900
Zn       2.60482000       1.42375000      12.35426000      -0.17050600       0.34902800      -0.08044000
Zn       5.15378000       1.50161000      12.39893000       0.33017300      -0.05287700       0.13895000
Zn       7.82985000       1.62172000      12.65883000       0.07439900      -0.23809800      -0.15324700
Zn       1.39273000       3.78322000      12.30947000      -0.23724600      -0.03716500       0.42298900
Zn       3.99281000       3.73262000      12.29215000      -0.32790600       0.16582600       0.19135500
Zn       6.53041000       3.78494000      12.49064000       0.05273700       0.26352900      -0.15318400
Zn       9.13477000       3.89596000      12.49896000      -0.02976700      -0.37577500      -0.22931000
Zn       0.04342000       6.06372000      12.44068000      -0.47155600      -0.36457500       0.40207900
Zn       2.57827000       6.00922000      12.24486000       0.53530200      -0.41355100       0.45192800
Zn       5.19205000       5.96955000      11.92082000      -0.02029300      -0.14708800       0.42804500
Zn       7.83451000       6.09084000      12.26855000      -0.09735800       0.08686000       0.21828100
Zn       1.32936000       8.10108000      12.29519000      -0.21587600       0.93020700       0.38405600
Zn       3.79815000       8.18397000      11.84597000       0.16336500       0.01487100       0.14940500
Zn       6.40647000       8.23125000      12.07560000       0.24044800       0.20299100      -0.12327600
Zn       9.22297000       8.33043000      12.43319000      -0.66237400      -0.37798400       0.12156300
Zn       0.04734000      10.37589000      12.61856000      -0.76849000       0.24735400      -0.85434100
Zn       2.47199000      10.45744000      11.94712000      -0.11368900       0.13073600       0.46936900
Zn       4.93055000      10.29324000      12.50161000       0.45954800       0.61065900       0.36071200
Zn       7.69670000      10.68552000      12.31330000       0.13050600      -0.76741900       0.14267700
Zn       1.16194000      12.80516000      12.11449000       0.12671000      -0.27283200       0.10111000
Zn       3.81176000      12.74424000      12.26164000       0.08890200      -0.18185000       0.46853600
Zn       6.37418000      12.86641000      12.38898000       0.07150400      -0.02377300       0.30182200
Zn       9.09197000      12.91580000      12.36031000       0.00681000      -0.11540900       0.72484100
Zn       0.08280000       0.01149000      15.62678000      -0.37472000       0.12134400       0.04706000
Zn       2.40486000      13.50825000      14.43149000       0.03334600       0.05385300      -0.01958700
Zn       4.92869000      13.52207000      14.84334000       0.81963100       0.67402500      -0.08217800
Zn       7.69841000      13.56974000      14.85372000       0.14648800       0.02229100       0.25277900
Zn       1.25822000       2.33299000      14.48630000      -0.19465500      -0.31322900       0.38652100
Zn       3.82694000       2.33507000      14.77899000       0.19149100      -0.04806600       0.29082200
Zn       6.43090000       2.36172000      14.87766000      -0.16275400      -0.12942400       0.34142900
Zn       9.01938000       2.40927000      15.04543000       0.09578300      -0.55027300       0.11822000
Zn      10.29843000       4.54179000      14.73380000       0.52816400       0.58491700       0.40258900
Zn       2.55242000       4.50974000      15.24653000      -0.40494500      -0.01965700      -0.09582600
Zn       4.94398000       4.85638000      14.53894000       0.37352500       0.03541700       0.01985100
Zn       7.68020000       4.78984000      14.78106000      -0.19266800       0.01027800       0.08971600
Zn       1.52739000       7.06517000      14.97917000      -0.06813400      -0.37875200      -0.02120100
Zn       3.47649000       6.42059000      16.74541000       0.55791600      -0.00272000      -0.15484000
Zn       6.30053000       6.66846000      16.12740000       0.12499600       0.27800700       0.00289700
Zn       9.07607000       6.87007000      15.80942000      -0.07648600      -0.25781200       0.01418100
Zn      10.28298000       8.99485000      15.10412000      -0.01762100       0.34933100      -0.07061900
Zn       2.80571000       9.20819000      14.27941000       0.26211400       0.17695200       0.29822100
Zn       4.83436000       7.48985000      14.11556000      -0.18317200      -0.16726900       0.35585900
Zn       7.42248000       8.67504000      14.29533000       0.34047800      -0.11326800       0.51899400
Zn       1.22443000      11.29902000      14.41233000       0.60783300       0.35591100       0.82789700
Zn       3.96331000      11.48380000      15.60087000      -0.65624900      -0.86521000       0.16536500
Zn       6.49207000      11.18177000      14.44977000      -0.26457000       0.26402700       0.62027900
Zn       9.06434000      11.30673000      14.77943000       0.05202600       0.01010300       0.10593400
Li       0.52518000       2.65480000      17.05733000       0.16634600       0.05733200      -0.25049100
Li       5.20524000       1.47799000      17.49779000      -0.24983400      -0.21258800      -0.39480200
Li       7.92449000       1.39181000      17.42712000       0.15077500      -0.00874000      -0.10346700
Li       1.05163000       5.46020000      17.07390000      -0.33475500       0.25853600       0.21994700
Li       5.76141000       4.19043000      17.00627000       0.25847900       0.10478600      -0.13114000
Li       8.82788000       4.41687000      17.24653000      -0.19459600       0.14910500      -0.07004800
Li       3.08783000       8.92421000      16.88028000      -0.49176100       0.20075900      -0.23956700
Li       5.41755000       9.28562000      15.83742000      -0.24348800       0.05150800       0.08738200
Li       7.81622000       9.23867000      16.86883000       0.35060000       0.13766700      -0.11077300
Li       1.00758000      11.15852000      17.02068000       0.09238700      -0.04498500      -0.00432200
Li       6.27910000      12.09338000      16.97844000      -0.28756200       0.07779400      -0.16872300
Li       8.86740000      12.09416000      17.32214000       0.04286000      -0.07312600      -0.06036700
Li       0.25130000       0.39374000      18.25239000      -0.18812900      -0.02824500       0.54815900
Li       2.55196000       0.24765000      16.89874000       0.34272100      -0.06512900      -0.03837500
Li       8.57901000      13.05160000      20.03552000      -0.00897700      -0.11617800       0.16940000
Li       1.30883000       3.53301000      19.90741000      -0.01675000       0.19769100      -0.02895900
Li       3.28753000       4.11979000      17.97301000      -0.04786300      -0.56259200       0.06381100
Li       9.04443000       2.89733000      19.98267000      -0.31575400       0.11721400      -0.09746800
Li       0.32435000       8.10312000      17.59962000      -0.07326900      -0.01427700      -0.13071700
Li       5.18259000       8.02360000      18.39381000       0.09225700      -0.15203000       0.10692500
Li       7.76465000       7.03111000      18.40761000       0.13062000      -0.25157100      -0.02327100
Li       9.44499000       9.39883000      19.81160000       0.22512000       0.32999100      -0.08417600
Li       3.97673000      10.96359000      18.46468000      -0.16246400       0.36840500      -0.04743800
Li       6.56791000      10.41425000      19.54778000       0.28160300      -0.07311000       0.04864200
Li       2.74618000       0.66311000      19.87554000       0.29978600       0.07735500       0.09748100
Li       5.75629000      13.15490000      19.79633000       0.00528900       0.10614800       0.03539800
Li      10.00895000       4.48317000      22.68833000       0.08262600      -0.24220200      -0.28238500
Li       2.99512000       6.57928000      19.45749000      -0.20137900      -0.52974700      -0.11557100
Li       5.30071000       5.30005000      19.82208000       0.44923000       0.08932700      -0.12491100
Li      10.23509000       6.37346000      20.03717000      -0.16025800      -0.21534300      -0.25806000
Li       2.24131000       8.78849000      19.62169000      -0.54964700       0.41313100       0.11151100
Li       4.31987000       9.36217000      20.90882000       0.18007600       0.11303400       0.31770600
Li       1.00987000       9.84102000      22.51918000       0.42659400      -0.26415100      -0.17926200
Li       1.19309000      11.48829000      20.18885000       0.03507900       0.28766000      -0.05447300
Li       6.55370000      11.83457000      22.65048000       0.26241800      -0.12906100      -0.16490600