144
Lattice="10.24247 0.0 0.0 0.0 13.305359 0.0 0.0 0.0 28.912436" Properties=species:S:1:pos:R:3:ref_forces:R:3 free_ref_energy=-426.6424785 ref_energy=-426.63838024 magmom=1.1625957 stress="0.0023637593701180044 0.0015815110313710551 0.0002682475792122107 0.0015815110313710551 -0.0011626121463874004 0.0006954289468059127 0.0002682475792122107 0.0006954289468059127 -0.000989797241709945" pbc="T T T"
Cu      10.09480000       0.02470000       7.41749000       0.66534100       0.18017400       0.21689100
Cu       2.66161000      13.26338000       7.27201000      -0.32626400       0.25421400       0.62299700
Cu       5.22179000       0.03535000       7.50251000      -0.40533400       0.10624100       0.18818700
Cu       7.69573000       0.12318000       7.36033000      -0.23703800      -0.22611300       0.44860500
Cu       1.27308000       2.23004000       7.40132000       0.08548400      -0.16161900       0.30295300
Cu       3.89198000       2.20843000       7.49310000      -0.29494000      -0.05971500       0.33502300
Cu       6.43058000       2.32777000       7.57960000      -0.15341000      -0.32325800       0.03362200
Cu       8.94448000       2.40491000       7.67833000       0.10484900      -1.04126700      -0.73015400
Cu      10.23491000       4.42297000       7.45034000       0.08806500      -0.03950600       0.20639900
Cu       2.53561000       4.42931000       7.53277000       0.16787900      -0.16472400       0.09099800
Cu       5.07044000       4.42783000       7.57142000       0.13550700       0.07897600      -0.31036900
Cu       7.67225000       4.44625000       7.34847000      -0.05675900       0.26438600       0.42766600
Cu       1.20668000       6.50841000       7.47357000       0.39528300       0.73311900       0.26898000
Cu       3.78548000       6.66831000       7.46664000       0.23979700      -0.04188900       0.12482500
Cu       6.45222000       6.59897000       7.61650000      -0.74048600       0.19644500      -0.74315800
Cu       8.96580000       6.60622000       7.56436000       0.08775600       0.27852700      -0.25976800
Cu      10.21407000       8.89119000       7.64688000      -0.05262200      -0.17872000      -0.41837700
Cu       2.53230000       8.83883000       7.51219000       0.04116000       0.19803600       0.03411400
Cu       5.09934000       8.88300000       7.63565000       0.00574600      -0.08326600      -0.38975900
Cu       7.63728000       8.76786000       7.51448000       0.06691900       0.52231400       0.20110800
Cu       1.20422000      11.15721000       7.38058000       0.31871800      -0.18570700       0.36007600
Cu       3.88580000      11.07996000       7.48071000      -0.40700600      -0.01081700       0.17697600
Cu       6.30218000      11.11067000       7.48108000       0.68989500      -0.13281400       0.19062100
Cu       8.96590000      11.04186000       7.36345000      -0.48979200       0.08302300       0.27112600
Cu       1.22334000       0.82773000       9.52363000       0.05492600      -0.65740700      -0.46523600
Cu       3.71824000       0.73275000       9.68971000       0.40206300       0.25741700      -0.61735100
Cu       6.39776000       0.79314000       9.65032000      -0.11955700       0.26873400      -0.14820800
Cu       8.88458000       0.73104000       9.66447000       0.05218200       0.48899300      -0.44979100
Cu      10.20618000       2.90848000       9.66863000       0.14692000       0.42198000      -0.29448900
Cu       2.45998000       2.98277000       9.67584000       0.81658600      -0.08325500      -0.65891200
Cu       5.08936000       3.00062000       9.67935000      -0.13436600      -0.07043900      -0.26081800
Cu       7.75709000       3.06167000       9.65074000      -0.80510900      -0.19924000       0.08950900
Cu       1.30599000       5.13673000       9.67083000       0.07525700       0.45163600      -0.13976000
Cu       3.93854000       5.28961000       9.57782000      -0.67637100      -0.33135500       0.27763900
Cu       6.37911000       5.20805000       9.56360000       0.37650800      -0.59367000       0.38148500
Cu       9.04079000       5.22476000       9.57676000      -0.07391400      -0.26291800       0.35389400
Cu       0.14579000       7.39439000       9.62148000      -0.39799900      -0.12779100       0.09715600
Cu       2.67862000       7.42673000       9.61244000      -0.54791900      -0.35665800      -0.31933200
Cu       5.14498000       7.57658000       9.68850000       0.20786400      -0.90114300      -0.35581600
Cu       7.63018000       7.26303000       9.56942000       0.53263500       0.91295400       0.82268700
Cu       1.34213000       9.55261000       9.56171000      -0.15839600       0.68341200       0.37314100
Cu       3.93416000       9.63486000       9.75050000      -0.87269300       0.61801800      -0.26065400
Cu       6.35447000       9.67863000       9.69675000       0.50113200       0.34787700      -0.19396500
Cu       8.84146000       9.59428000       9.64823000       0.38031400      -0.02251400      -0.12785000
Cu      10.07499000      11.86356000       9.50262000       1.06023500      -0.42505600      -0.07203200
Cu       2.54830000      11.79195000       9.48946000      -0.24827300       0.12301900       0.16287500
Cu       5.10387000      11.94682000       9.67006000      -0.04956600      -0.38078400      -0.30093600
Cu       7.70786000      11.88302000       9.48540000      -0.71373400      -0.18372800       0.01394500
Cu      10.24219000       1.41838000      11.68287000      -0.10272600       1.06026100       0.20738000
Cu       2.47332000       1.48102000      11.69294000       0.39700300       0.50921400      -0.14572000
Cu       5.09434000       1.62300000      11.72550000      -0.27263700      -0.44279100      -0.15318900
Cu       7.67212000       1.53919000      11.84798000       0.08986300      -0.28472000      -0.68754000
Cu       1.19902000       3.64609000      11.62577000       0.02500800       0.57348100       0.72251600
Cu       3.73881000       3.80715000      11.74269000       0.36307100      -0.03936100      -0.38518600
Cu       6.42165000       3.67991000      11.70991000      -0.26896900       0.52551000      -0.09363900
Cu       8.91118000       3.73511000      11.68959000       0.69559900      -0.30975500       0.27010800
Cu       0.03736000       6.05364000      11.84538000       0.25199100      -0.61459700      -0.68103800
Cu       2.50034000       5.89200000      11.84945000       0.26246600      -0.00714000      -0.69581300
Cu       5.21920000       6.06356000      11.58204000      -0.10317000      -0.61789700       0.53340200
Cu       7.76060000       5.81607000      11.79508000      -0.28289200       0.58539200      -0.51487600
Cu       1.46829000       8.15336000      11.73095000      -1.79569800       0.10755700      -0.02447700
Cu       3.71122000       8.05543000      11.70648000       1.49513600       1.08023000      -0.30816900
Cu       6.44110000       8.25738000      11.76688000       0.03207100      -0.21974700      -0.11065700
Cu       9.00794000       8.04521000      11.61912000      -0.27183600       0.99373900       0.12513900
Cu       0.06740000      10.38409000      11.68701000      -0.72547300      -0.21392100      -0.09206200
Cu       2.45358000      10.37136000      11.81357000       0.70622200       0.47927800      -0.68917400
Cu       5.02085000      10.50355000      11.82903000       0.49854100      -0.40796400      -0.65030400
Cu       7.65678000      10.49194000      11.71352000       0.43588300      -0.44633400       0.16262800
Cu       1.19879000      12.63429000      11.51353000       0.78836200      -0.50831700       0.14470300
Cu       3.74817000      12.61787000      11.72473000       0.05486500       0.19393100      -0.28428500
Cu       6.46937000      12.58067000      11.62678000      -0.27704100       0.51829600       0.49285600
Cu       9.05897000      12.66482000      11.67355000      -1.58120100      -1.17363200      -0.75258500
Cu      10.04827000      13.21408000      13.61444000       1.20141200       0.72298300       1.37736800
Cu       2.42251000       0.24814000      13.72978000       0.29249400      -0.20252200       0.30975100
Cu       5.07615000       0.20256000      13.71315000       0.05014000      -0.36459300       0.39232500
Cu       7.69070000       0.05271000      13.87169000      -0.51483700      -0.61891200      -0.04367500
Cu       1.34678000       2.45019000      13.79239000      -0.60867400      -0.17112600       0.27246700
Cu       3.76212000       2.49938000      13.80628000       0.51759300      -0.56918700       0.21160600
Cu       6.40950000       2.24934000      13.82350000      -0.28020400       0.28003300       0.24161600
Cu       9.00890000       2.17890000      13.88171000       0.29079800       0.15239400      -0.15682200
Cu       0.02441000       4.54151000      13.74544000      -0.03272300      -0.17199400       0.06800300
Cu       2.60668000       4.64078000      13.95321000      -0.06033400       0.14940800      -0.02682800
Cu       5.18662000       4.55007000      13.71818000      -0.16506300      -0.07132200       0.25825200
Cu       7.76623000       4.33787000      13.88544000      -0.11567000       0.27674600       0.17585500
Cu       1.45947000       6.83193000      13.90969000      -0.19557100       0.04289100       0.12940700
Cu       4.02697000       6.89064000      13.65645000      -0.39331200      -0.98639700       0.99479700
Cu       6.51881000       6.56215000      13.78675000      -0.01464100       0.61248400       0.27262700
Cu       8.98995000       6.86491000      13.77880000       0.20894200      -0.63991600       0.42611200
Cu       0.21288000       8.95117000      13.88665000      -0.68330400      -0.07513800      -0.41482900
Cu       2.64676000       9.14616000      13.89438000      -0.12562500      -0.41275300       0.44553700
Cu       5.04916000       8.98796000      13.74968000       0.91672900       0.25656400       0.10472600
Cu       7.65850000       8.94478000      13.85419000       0.04057600      -0.15330200      -0.21749800
Cu       1.32656000      11.35129000      13.80363000      -0.15242300      -0.49162500       0.18872400
Cu       3.88832000      11.31289000      13.77500000      -0.26802300       0.14874900       0.73179900
Cu       6.39630000      11.17822000      13.89335000       0.20258200      -0.12078700      -0.23772900
Cu       9.04044000      11.02436000      13.94403000      -0.37520700      -0.11160400      -0.33301000
Li       2.30804000       3.56337000      16.19305000      -0.04145000      -0.25345100      -0.04267600
Li       5.64293000       3.32026000      16.12310000      -0.03407100       0.34142800      -0.36309200
Li       9.19733000       3.44158000      15.99662000       0.09106700      -0.07821200       0.06780600
Li       4.11320000       5.79064000      15.90879000      -0.21186500      -0.22792600      -0.00895700
Li       7.48445000       5.48435000      16.24607000      -0.02328800       0.10504900      -0.29778100
Li       0.36193000       5.64492000      15.84279000       0.13930400       0.28122700       0.39795900
Li       2.12801000       7.84365000      16.35978000       0.31117100      -0.08206400      -0.40926100
Li       5.82190000       7.73186000      15.99456000       0.20301900       0.06343200      -0.14594800
Li       8.95766000       7.92863000      16.01876000       0.38944600      -0.24003000      -0.19722800
Li       0.65263000       0.90896000      15.86232000       0.06005300       0.47586700      -0.18830800
Li       4.08406000       1.22957000      15.99713000      -0.07497200      -0.21807500      -0.18389200
Li       7.48850000       1.39914000      15.90739000       0.05807700      -0.30842100       0.41513100
Li       8.50659000      13.00136000      18.99029000      -0.12755300       0.38787700      -0.30120900
Li       2.26148000       0.31543000      18.42633000      -0.16100200       0.15646700       0.09965400
Li       5.36071000       0.23016000      18.81419000       0.06186600      -0.34028700      -0.03715700
Li       0.36654000       2.60441000      18.36787000       0.06570600       0.11049500       0.00095800
Li       4.16170000       2.55792000      18.51425000      -0.56430800       0.41749000      -0.11475400
Li       6.94163000       2.82350000      18.64213000       0.50294500      -0.02766600       0.07241900
Li       8.94807000       5.51323000      18.96468000       0.04875200      -0.00950200      -0.26301300
Li       2.02395000       5.51751000      18.85110000       0.17707100      -0.11924700      -0.36935000
Li       5.68707000       5.55336000      18.41211000      -0.12295500      -0.04772000       0.28845600
Li       0.54050000       9.95840000      16.02164000       0.35818200       0.19648000       0.07020600
Li       4.41239000       9.86288000      15.92302000      -0.35087900       0.26102800       0.26002000
Li       7.67676000       9.98949000      16.06267000      -0.25571300       0.50344900       0.10094400
Li       0.30876000       0.58650000      20.62260000       0.05574600      -0.32542600       0.06708400
Li       3.36213000      13.04381000      21.08242000       0.16148400       0.47796600      -0.13751200
Li       6.94617000       0.61807000      21.33617000       0.20074500      -0.14310100      -0.13305500
Li       2.16271000       2.93808000      20.90572000       0.06248300      -0.01294300      -0.18905300
Li       5.17852000       2.62928000      20.84428000      -0.04327600       0.27590800       0.27507700
Li       9.34779000       3.02465000      20.69925000      -0.38366200       0.07446400       0.12303200
Li       0.48183000       8.08666000      18.49656000       0.02356300      -0.13998300       0.33103200
Li       4.11603000       8.19183000      18.68723000       0.02123200      -0.06374200      -0.04173400
Li       7.60646000       8.05506000      18.28833000       0.00935600      -0.12593300       0.20318100
Li       2.52089000      12.31693000      15.86849000       0.18853500      -0.51144200       0.13784900
Li       5.89884000      12.18931000      16.06304000      -0.01410400       0.34211300       0.10810800
Li       9.45585000      12.13214000      16.11312000      -0.33544300       0.32023200      -0.00963900
Li       9.43012000      10.49046000      18.64569000       0.17066100      -0.07365000       0.12377000
Li       2.77003000      10.90715000      18.83166000       0.00872300      -0.21091400      -0.07364700
Li       6.36821000      10.47857000      18.93287000      -0.13639000       0.20295800       0.01268800
Li       1.27000000      11.15830000      21.36422000      -0.16645400      -0.14447100      -0.18083900
Li       4.52770000      10.59084000      21.57597000       0.20772100      -0.21822700      -0.27881800
Li       8.47598000      11.16549000      21.32764000      -0.23712300       0.06893000      -0.11122700
Li       0.60999000       5.58373000      21.09804000      -0.07554900       0.13885200       0.22454500
Li       4.02186000       5.79466000      20.92603000      -0.01733200      -0.11474900      -0.00860900
Li       7.17535000       5.12093000      21.18018000       0.02955900      -0.07120100      -0.06771000
Li       9.20476000       8.35894000      21.20440000       0.13311100      -0.18640100      -0.27528800
Li       2.37245000       8.41138000      21.04699000      -0.05921100      -0.09822900      -0.17439000
Li       6.31924000       7.85866000      20.64983000      -0.19054400       0.14539900       0.10687200
144
Lattice="10.24247 0.0 0.0 0.0 13.305359 0.0 0.0 0.0 28.912436" Properties=species:S:1:pos:R:3:ref_forces:R:3 free_ref_energy=-427.4506039 ref_energy=-427.44881424 magmom=1.1541558 stress="0.014620204599105834 0.0017636944412464618 0.0005525920104600743 0.0017636944412464618 0.010564578074762031 0.0013693558946731574 0.0005525920104600743 0.0013693558946731574 0.01336856980805596" pbc="T T T"
Cu      10.11690000      13.28657000       7.58948000      -0.31364200       0.05649300      -0.03386000
Cu       2.45989000       0.06060000       7.47174000      -0.17644900      -0.08786200      -0.05472100
Cu       4.91247000       0.03020000       7.50547000       0.62237100      -0.17725700      -0.11774400
Cu       7.51460000      13.20528000       7.66885000       0.25747500       0.55287500       0.02708700
Cu       1.16549000       2.15573000       7.44175000      -0.05885300       0.36929800      -0.00168100
Cu       3.76631000       2.26394000       7.29274000      -0.09548400      -0.11844300       0.32541600
Cu       6.30065000       2.12978000       7.46222000       0.13678200       0.27170200       0.27989600
Cu       8.81373000       2.22942000       7.44202000       0.09798100      -0.15785000       0.50093900
Cu      10.15769000       4.42214000       7.59856000      -0.24649600      -0.16112400      -0.91299400
Cu       2.48771000       4.38699000       7.37362000      -0.11924800       0.30420900       0.14028400
Cu       5.08950000       4.37454000       7.67761000      -0.22470100       0.28349700      -0.79057900
Cu       7.62813000       4.49057000       7.47151000      -0.16201200      -0.30814300       0.19454300
Cu       1.09573000       6.60641000       7.42441000       0.21187600       0.38862100       0.20862700
Cu       3.69641000       6.79455000       7.40877000       0.05202300      -0.39695500       0.08191400
Cu       6.22350000       6.55545000       7.54107000       0.15288300       0.61553200      -0.06424200
Cu       8.74109000       6.79719000       7.58914000       0.33424100      -0.38540500      -0.28929300
Cu      10.14571000       8.90926000       7.50751000      -0.11611200      -0.03480600       0.15119200
Cu       2.44343000       9.00391000       7.48346000       0.01607800      -0.35252800      -0.15133700
Cu       5.01914000       8.94063000       7.45291000      -0.39887300      -0.26392000       0.04385400
Cu       7.43587000       8.89489000       7.50847000       0.64706700      -0.19067600      -0.19534800
Cu       1.20632000      11.17982000       7.60914000      -0.39708300      -0.22277900      -0.11138900
Cu       3.66536000      11.12628000       7.63230000       0.39243700       0.24619500      -0.13767900
Cu       6.23532000      11.14020000       7.62384000      -0.13852100       0.03844200      -0.30302800
Cu       8.72020000      11.01309000       7.46796000       0.54994500       0.23544800       0.54482600
Cu       1.20409000       0.81424000       9.58133000       0.01700100       0.30796000       0.15910600
Cu       3.80046000       0.86397000       9.46880000      -0.00585600      -0.11218700       0.42101800
Cu       6.35065000       0.89187000       9.72880000       0.35981100      -0.32478200      -0.75775700
Cu       8.94778000       0.86231000       9.73294000      -0.25728900      -0.34778400      -0.25970600
Cu       0.01835000       3.00222000       9.59043000      -0.64318400      -0.22354500       0.33693800
Cu       2.49152000       2.97757000       9.49840000       0.09062700       0.24919100      -0.00543300
Cu       5.03830000       2.96050000       9.57146000       0.03768000       0.50425300      -0.08747300
Cu       7.60706000       3.09336000       9.71196000      -0.04087500      -0.38124600      -0.42897900
Cu       1.13224000       5.17826000       9.48594000       0.59146700       0.40439600       0.61217200
Cu       3.60417000       5.27447000       9.45982000       0.50623000      -0.10061900       0.22359700
Cu       6.32348000       5.25703000       9.65712000       0.10593800      -0.22921500      -0.18968800
Cu       8.88314000       5.19938000       9.53352000      -0.31714800       0.08539400       0.41678700
Cu      10.10189000       7.34851000       9.66448000       0.94667300       0.51436000      -0.62461900
Cu       2.49986000       7.49944000       9.45176000      -0.22575300      -0.26882600       0.44273900
Cu       5.11950000       7.35498000       9.63660000      -0.32805200       0.51336800      -0.54501600
Cu       7.70680000       7.55893000       9.70247000      -0.74628100      -0.48201400      -0.21181400
Cu       1.23635000       9.57378000       9.58264000       0.31548800       0.56011700       0.30901200
Cu       3.89081000       9.66008000       9.60651000      -0.75810200       0.13015900      -0.26147000
Cu       6.32144000       9.61205000       9.49145000       0.38754000       0.14341800       0.82791800
Cu       9.07439000       9.58603000       9.73316000      -0.58966400       0.74848400      -0.62348400
Cu       0.09346000      11.93174000       9.70650000      -1.19358100      -0.45791700      -0.27027400
Cu       2.49692000      12.08059000       9.67395000       0.65049300      -0.74632700      -0.18707900
Cu       5.09684000      11.97228000       9.69987000      -0.18155700       0.12547400      -0.52702600
Cu       7.65861000      11.81181000       9.76708000       0.30089500       0.13396600      -0.28422800
Cu       0.04006000       1.60138000      11.82528000      -0.07315500       0.05844000      -0.72500200
Cu       2.62207000       1.49817000      11.58402000      -0.55127800       0.61679400       0.21563000
Cu       5.12796000       1.74876000      11.64502000      -0.12140500      -0.76561800       0.40597500
Cu       7.73588000       1.56161000      11.77399000      -0.33023600       0.36341900       0.13782500
Cu       1.27315000       3.81454000      11.69578000      -0.29337300      -0.15140700      -0.13043900
Cu       3.78237000       3.84559000      11.57004000      -0.65560500      -0.15694000       0.19697700
Cu       6.18785000       3.92741000      11.74383000       0.98649400      -0.35186800      -0.16068100
Cu       8.83844000       3.82809000      11.74094000       0.24950300       0.13176100      -0.30385000
Cu      10.11219000       6.02600000      11.60879000       0.29877900      -0.22249100       0.50994700
Cu       2.44422000       6.05815000      11.62614000      -0.21278500       0.02249400       0.04035900
Cu       4.93810000       5.97242000      11.64707000       0.12247700       0.50245600       0.38147500
Cu       7.56968000       6.03385000      11.68694000       0.06852900      -0.03936500       0.07313800
Cu       1.19107000       8.33148000      11.80647000       0.40095600      -0.38419000      -0.80260400
Cu       3.80166000       8.20734000      11.57259000      -0.59046300       0.21605100       0.31282900
Cu       6.30397000       8.14695000      11.73678000       0.49702900       0.17652300      -0.55837400
Cu       8.95348000       8.22519000      11.77289000      -0.01757700      -0.09394000       0.10173700
Cu      10.18359000      10.52715000      11.78034000       0.11565300      -0.45837600      -0.04364700
Cu       2.49080000      10.58864000      11.65495000       0.42842800      -0.71320100      -0.06987100
Cu       5.15837000      10.44593000      11.52916000      -0.01341900       0.33362500       0.71534900
Cu       7.70201000      10.29680000      11.72742000      -0.45797700       0.49565100       0.11292900
Cu       1.20021000      12.64734000      11.72497000       0.38907000       0.64042300       0.13810800
Cu       3.83447000      12.76735000      11.78426000       0.40484900      -0.41739900      -0.33527400
Cu       6.40156000      12.78919000      11.68099000      -0.03334000      -0.35764100       0.50763900
Cu       8.94511000      12.64031000      11.91734000      -0.59583300      -0.00373000      -0.42949000
Cu       0.02881000       0.08794000      13.77420000      -0.16961000       0.01174400       0.77227800
Cu       2.53152000       0.06636000      13.82836000       0.37675100      -0.18922100      -0.07498800
Cu       5.17685000       0.30701000      13.80884000      -0.11019000      -0.36776100      -0.08827800
Cu       7.75296000       0.46056000      14.09492000      -0.32429600      -0.70803000      -0.22915500
Cu       1.37447000       2.21320000      13.82139000      -0.40572500       0.43386600       0.17243700
Cu       3.80294000       2.37892000      13.73200000      -0.07267000      -0.29054400      -0.22727100
Cu       6.29799000       2.50972000      13.77144000       0.49922800       0.01624500       0.36120600
Cu       9.01947000       2.49256000      13.75553000       0.12891100       0.17094400       0.22819300
Cu      10.15073000       4.78972000      13.73160000      -0.19290300      -0.83031300       0.22501500
Cu       2.46627000       4.47902000      13.79301000       0.10835800       0.49238600       0.02058500
Cu       5.00963000       4.63209000      13.87194000      -0.42189400       0.22658400      -0.26457200
Cu       7.52148000       4.69686000      13.81278000       0.22233000       0.10590500      -0.06698700
Cu       1.18238000       6.80391000      13.82108000       0.26228000      -0.05749500       0.12462100
Cu       3.71411000       6.86683000      13.82628000      -0.16142800      -0.22543300      -0.31117400
Cu       6.18259000       6.92251000      13.90664000       0.09554600      -0.53445000      -0.00900900
Cu       8.71199000       6.89826000      13.81570000       0.77519400      -0.94156100       0.22309800
Cu       0.07459000       9.00382000      13.87624000      -0.77802500      -0.01705900       0.32462500
Cu       2.45206000       9.07679000      13.81987000       0.94865000      -0.33245300      -0.04649200
Cu       5.08372000       9.07026000      13.52486000      -0.18798500       0.27672000       0.93296800
Cu       7.71056000       8.92941000      13.90181000      -0.73553200       0.84221200      -0.02066100
Cu       1.28528000      11.22829000      13.82118000      -0.36797900       0.08168700       0.00028400
Cu       3.87478000      11.17846000      13.73741000       0.21471100       0.31619000       0.09134500
Cu       6.53871000      11.40356000      13.72535000      -0.53554000       0.11113900      -0.11177100
Cu       8.90269000      11.03496000      13.96847000       0.47613300       0.78671500       0.16369500
Li       4.24107000       3.23121000      15.89089000      -0.09019900       0.03524500       0.27164400
Li       8.02715000       3.44085000      15.84830000       0.18058300       0.13492600       0.18614500
Li       1.12665000       3.76837000      15.96877000      -0.10699200      -0.27200400      -0.01060900
Li       5.98625000       5.20138000      16.02208000       0.01645700       0.24765600       0.04205500
Li       9.85138000       6.15689000      16.02801000      -0.33720700      -0.07488500      -0.09908400
Li       3.05486000       5.71240000      16.08236000      -0.02787700       0.24805400      -0.16517400
Li       4.38529000       8.22665000      15.87351000      -0.13614700      -0.04943700      -0.08177300
Li       7.08440000       7.53155000      16.20583000       0.35304800      -0.06552200      -0.08943900
Li       1.34183000       8.26436000      16.11853000       0.23156100      -0.23076400      -0.25973300
Li       2.74777000       0.93701000      16.08524000      -0.12345700      -0.04358300      -0.16434100
Li       6.09163000       1.36814000      16.09466000       0.21364500       0.03862300       0.01997100
Li       9.47170000       1.22488000      15.91301000       0.24478200       0.14360600       0.02385900
Li       9.30828000      12.09350000      18.93225000       0.11749400      -0.13729100      -0.25910100
Li       2.16505000      11.98852000      19.21590000       0.07583000       0.20498400      -0.12975100
Li       5.47610000      12.15500000      18.83659000       0.29078800       0.03995400      -0.13491000
Li       1.02740000       1.40415000      18.29675000       0.12709400       0.01807100       0.10058700
Li       4.19256000       1.43664000      18.62799000       0.03082200       0.07613300       0.09258600
Li       8.07602000       1.36007000      18.37508000      -0.13072000      -0.12726900       0.05182300
Li       9.76799000       3.81043000      18.74713000      -0.04863900       0.11085300      -0.17714700
Li       3.60725000       4.37885000      18.76281000      -0.38869300      -0.22476100      -0.48727200
Li       6.63824000       3.89705000      18.38098000      -0.16038200      -0.19079500       0.18944000
Li       2.42028000      10.64452000      15.85843000       0.38148800       0.15191500       0.25346100
Li       6.34980000      10.05903000      15.69598000      -0.29921100      -0.10185700       0.13684800
Li       9.12154000       9.52545000      16.18445000       0.08395500       0.01008700      -0.12953300
Li       0.35448000      11.55917000      21.49118000       0.21945600       0.25077700      -0.12323500
Li       4.48178000      12.18643000      21.35358000      -0.24902400       0.11503400       0.05754400
Li       7.70834000      12.10063000      21.03083000      -0.32568900      -0.07420700       0.08404100
Li       3.18940000       1.52070000      21.46291000      -0.11224900      -0.05435400      -0.20375200
Li       6.31532000       1.36473000      20.67882000      -0.01338000       0.03926900       0.02568700
Li       9.84201000       1.41930000      20.65676000       0.01119100      -0.16575900       0.24510000
Li       1.24692000       6.13499000      18.43183000      -0.11578200       0.14288400       0.07406400
Li       5.17807000       6.74184000      18.67395000      -0.21369200       0.24224300       0.04285700
Li       7.89854000       6.38415000      18.76509000       0.52724700       0.15757200       0.10951700
Li       4.89181000      12.33762000      15.92668000      -0.34063300      -0.24006500       0.01024400
Li       7.77770000      12.19780000      16.17046000       0.01148200       0.12284200       0.02357900