144
Lattice="10.24247 0.0 0.0 0.0 13.305359 0.0 0.0 0.0 28.912436" Properties=species:S:1:pos:R:3:ref_forces:R:3 free_ref_energy=-428.45003698 ref_energy=-428.46088096 magmom=-0.0015228 stress="0.0034585949689074384 0.0005841927711644213 0.00021772880434731156 0.0005841927711644213 -0.0006611630617048134 0.0008384406454072758 0.00021772880434731156 0.0008384406454072758 -1.4586406827189174e-05" pbc="T T T"
Cu      10.06969000       0.09510000       7.48627000       0.24854700      -0.48928000       0.13378600
Cu       2.34140000      13.25127000       7.61544000       0.23249300       0.48889200      -0.37622400
Cu       4.89253000       0.02561000       7.62057000       0.32522800       0.24249200      -0.18112800
Cu       7.52359000      13.30164000       7.45905000      -0.03751500       0.28535600       0.29725200
Cu       1.18481000       2.24040000       7.69411000      -0.47988300      -0.01869100      -0.60065100
Cu       3.72101000       2.26057000       7.55314000      -0.14273100       0.20023400      -0.12970600
Cu       6.19929000       2.25936000       7.64528000       0.26818900      -0.12682000      -1.00771000
Cu       8.79806000       2.15788000       7.55792000      -0.08708000       0.77031200      -0.07349700
Cu      10.04085000       4.42151000       7.56707000       0.19026000      -0.09374200       0.16368300
Cu       2.42582000       4.46072000       7.43072000       0.05598500       0.11634600       0.26873900
Cu       5.08079000       4.61466000       7.51373000      -0.43400800      -0.62284800       0.22032300
Cu       7.50762000       4.49556000       7.53286000       0.35090700      -0.49809500       0.20897000
Cu       1.06046000       6.61884000       7.39596000       0.38315000       0.08903200       0.31696500
Cu       3.75859000       6.64073000       7.32479000      -0.26933800       0.36443200       0.34175700
Cu       6.39585000       6.68551000       7.65754000      -0.27541700       0.22898800      -0.74637300
Cu       8.78949000       6.63164000       7.52616000       0.42308800       0.31020600       0.08444900
Cu      10.07831000       8.84282000       7.39556000       0.11559500       0.18816900       0.34571500
Cu       2.39967000       8.83734000       7.55139000      -0.01743500       0.21554100      -0.32863700
Cu       5.15234000       8.93204000       7.43650000      -0.67336000      -0.03142100       0.11696400
Cu       7.56604000       9.06333000       7.36704000       0.17599900      -0.48643800       0.24705500
Cu       1.17634000      11.13762000       7.46245000      -0.33360300      -0.43274700       0.22868400
Cu       3.73177000      11.17906000       7.53185000      -0.13809800      -0.55481900      -0.13830200
Cu       6.28090000      11.22819000       7.45242000      -0.11826700      -0.33159900       0.33859000
Cu       8.87912000      11.16854000       7.46774000      -0.11298300      -0.08939900       0.12759600
Cu       1.16339000       0.73607000       9.66075000      -0.85564000      -0.05744700      -0.17365800
Cu       3.55928000       0.86834000       9.58870000       0.93103500      -0.14411000      -0.13635400
Cu       6.28822000       0.81107000       9.60574000      -0.48878000      -0.92731500       0.37329100
Cu       8.85652000       0.79365000       9.54814000      -0.28136800      -0.46765100       0.54261400
Cu      10.04003000       2.99467000       9.76740000      -0.03769800       0.11091100      -0.63753000
Cu       2.36297000       3.05338000       9.57276000       0.47069400       0.34947000       0.25178000
Cu       5.04351000       3.03823000       9.57569000      -1.12083200       0.35488000       0.55635100
Cu       7.38772000       2.90104000       9.63082000       1.39682800       0.77501300       0.47665100
Cu       1.20153000       5.22348000       9.62718000      -0.12352200      -0.02883100      -0.70224200
Cu       3.72141000       5.25036000       9.61721000       0.11208500      -0.41884200      -0.41309600
Cu       6.38339000       5.20820000       9.78664000      -0.56970800      -0.12005300      -0.64775500
Cu       8.76740000       5.21349000       9.66533000       0.36487700      -0.11703300      -0.35384600
Cu      10.20568000       7.39535000       9.62478000      -0.39395900       0.07327000      -0.53822300
Cu       2.52644000       7.46270000       9.56299000      -0.54865400      -0.27102600      -0.14329000
Cu       4.98945000       7.34817000       9.43388000       0.05429300       0.60277900       0.52159800
Cu       7.58281000       7.52220000       9.62550000      -0.07789500      -0.74299200       0.07307300
Cu       0.99539000       9.59581000       9.66471000       0.64448500       0.18290500      -0.39288100
Cu       3.71483000       9.58174000       9.49300000       0.15313400       0.53042300      -0.01731400
Cu       6.28869000       9.65699000       9.59830000      -0.47126900       0.15137500      -0.19663500
Cu       8.75593000       9.54080000       9.53597000       0.47044700       0.68271300       0.11757300
Cu       9.99183000      11.76290000       9.64693000       0.37189500       0.60004000      -0.21090500
Cu       2.32951000      11.77810000       9.62082000      -0.04746900       0.13884900      -0.21708200
Cu       4.86549000      11.85243000       9.64595000       0.55554000       0.13346300      -0.22401100
Cu       7.53005000      11.87095000       9.69991000      -0.35233800      -0.00751000      -0.19268000
Cu       9.93777000       1.48716000      11.71434000       0.40131500       0.06976500       0.11031000
Cu       2.35315000       1.64788000      11.56784000       0.06691800      -0.05059100       0.93170000
Cu       4.93929000       1.70263000      11.69647000      -0.05612900      -0.57495400       0.09143800
Cu       7.48892000       1.51782000      11.77713000      -0.30393400       0.06608600      -0.21662300
Cu       1.10201000       3.81958000      11.69609000       0.03602000      -0.16239300      -0.12734900
Cu       3.60619000       3.82569000      11.75744000       0.55754800       0.09026700      -0.55623500
Cu       6.16181000       3.81641000      11.92020000       0.14657000       0.23584400      -0.54960000
Cu       8.71595000       3.75648000      11.74553000       0.04580100       0.03641200       0.08030600
Cu      10.13148000       5.92628000      11.53618000      -0.18831700       0.28204800       1.01700100
Cu       2.49233000       6.08244000      11.60999000      -0.10160400       0.03457200       0.11299800
Cu       5.03542000       6.08232000      11.59279000      -0.57113600      -0.21300000       0.63019000
Cu       7.51508000       5.99063000      11.80358000       0.39854800      -0.21149800      -0.11026000
Cu       1.18450000       8.15675000      11.71805000      -0.03265900       0.40021900      -0.13310700
Cu       3.77303000       8.38920000      11.60622000       0.03585100      -1.07029100      -0.07680600
Cu       6.28320000       8.19074000      11.65570000      -0.13512900       0.07737100      -0.20211800
Cu       8.85348000       8.10484000      11.76496000      -0.02382200       0.28686700      -0.54860600
Cu       9.99470000      10.43743000      11.69127000       0.46170800      -0.25833000       0.14963200
Cu       2.51836000      10.44217000      11.61293000      -0.80094100       0.21812400       0.23286700
Cu       4.96878000      10.52387000      11.73801000       0.15236200      -0.14176800      -0.41498000
Cu       7.52439000      10.25323000      11.71979000      -0.04729800       0.64908000       0.12844100
Cu       1.13818000      12.72887000      11.73569000      -0.18836300      -0.41858000       0.00444400
Cu       3.63194000      12.75881000      11.55560000      -0.05067700      -0.10841300       0.87173000
Cu       6.10052000      12.65801000      11.80115000       0.63435200       0.42320300      -0.61297900
Cu       8.72221000      12.56035000      11.81210000      -0.00484700       0.09106500      -0.29558000
Cu      10.05308000       0.00838000      13.83438000       0.11629100       0.08171900       0.06989300
Cu       2.53587000       0.29650000      13.85655000      -0.97247800      -0.43810500      -0.20388700
Cu       4.90586000       0.14057000      13.83798000       0.48312000       0.32696000       0.13130400
Cu       7.53807000       0.12773000      13.85106000      -0.20962100      -0.27512200       0.29078700
Cu       1.05190000       2.33401000      13.65194000       0.11847300      -0.01269800       0.37555200
Cu       3.65741000       2.46402000      13.85379000       0.26909800       0.01482900      -0.13136000
Cu       6.24169000       2.47434000      13.91782000      -0.16789800      -1.02578900      -0.09249100
Cu       8.77081000       2.32811000      13.87362000       0.25628100      -0.39848100      -0.04303600
Cu      10.15876000       4.63177000      13.73387000      -0.34877700      -0.63079200       0.22998700
Cu       2.43666000       4.74112000      13.64631000      -0.20654000      -0.59671400       0.75921900
Cu       4.91560000       4.69593000      14.03977000       0.19230900       0.18988800      -0.62761700
Cu       7.57718000       4.47147000      13.98916000      -0.07727400       0.67363900      -0.19988700
Cu       1.16158000       6.76231000      13.81710000       0.04265800       0.52844900      -0.13058700
Cu       3.72691000       6.84874000      13.72346000       0.10331600       0.27605100       0.08019400
Cu       6.26594000       6.85321000      13.75368000      -0.12431400      -1.33831300      -0.18713200
Cu       8.86867000       6.71729000      13.77878000      -0.12106400      -0.17282200       0.56205300
Cu      10.08354000       8.92561000      13.71290000       0.27212800       0.07838900       0.53963800
Cu       2.57623000       9.00600000      13.69376000      -0.79150600       0.16876000       0.35700200
Cu       5.04925000       9.04774000      13.68281000      -0.31183200       0.09514600       0.46311800
Cu       7.43320000       8.81906000      13.92645000       0.88945000       0.92081400       0.10794700
Cu       1.12311000      11.18914000      13.69863000      -0.05504800      -0.05933000       0.03692700
Cu       3.59377000      11.22038000      13.84152000       0.50224700       0.41302800      -0.00247000
Cu       6.22614000      11.27046000      13.78626000       0.08002500      -0.33303100       0.41544000
Cu       8.71242000      11.01282000      13.92418000       0.22764000       0.28685500       0.06751000
Li       5.41882000       3.45549000      15.92566000      -0.01074900      -0.11843600       0.47299100
Li       8.84069000       3.49214000      16.03969000       0.10492100      -0.02740300       0.03249000
Li       2.26874000       3.24534000      15.77416000      -0.24529900       0.21604500       0.14906800
Li       7.20785000       5.83106000      16.13212000       0.12897200      -0.24045000      -0.22170900
Li       0.44801000       5.70721000      15.98380000      -0.27172700      -0.03852200       0.09868100
Li       3.34710000       5.71412000      15.99528000       0.25143800      -0.09936700       0.01204100
Li       5.46912000       7.57628000      15.78064000      -0.28625000       0.30695400       0.37753600
Li       8.82339000       8.13597000      16.15355000       0.06121100      -0.04974500      -0.16298600
Li       2.10329000       8.00769000      15.96607000      -0.46161500      -0.10356500      -0.04386700
Li       3.65188000       1.01370000      16.08472000       0.25068600       0.10312500      -0.03471200
Li       7.04809000       1.13218000      16.14148000       0.14212500       0.20461400      -0.02027300
Li       0.51483000       1.10216000      15.98955000       0.06638000       0.19517100      -0.08364500
Li       0.52585000      12.92937000      18.51179000       0.12926700      -0.07253500       0.00033900
Li       3.91080000      12.53034000      18.39366000       0.09950100       0.06315200       0.35899100
Li       7.29609000      13.02978000      19.24265000       0.21003500      -0.20774200      -0.68811200
Li       2.37881000       1.91751000      18.76047000       0.25612900      -0.07452400      -0.24984500
Li       5.60307000       2.11906000      18.68514000       0.02554400      -0.12048600       0.04328400
Li       9.13589000       2.26540000      18.75805000       0.09811100      -0.08848900       0.06253300
Li       1.69174000       4.74933000      18.64532000      -0.13141100       0.03231800      -0.16938100
Li       5.18326000       4.92309000      18.31186000      -0.05861300       0.21382800       0.21045100
Li       8.67520000       5.13168000      18.60521000      -0.33644300       0.11095700      -0.10004600
Li       3.91040000       9.67430000      16.13122000       0.26235600       0.48424200      -0.12121900
Li       7.09303000      10.45049000      16.23592000       0.30433800      -0.66149500      -0.43263300
Li       0.44135000      10.28210000      15.92992000      -0.22362900      -0.27524100       0.02954000
Li       2.73906000      12.74109000      21.13161000      -0.15196200      -0.10902300      -0.18569900
Li       5.84151000      12.65009000      21.22642000      -0.11578300      -0.43740300       0.16227900
Li       9.73517000      12.74124000      20.97061000      -0.03622600      -0.26352700       0.07424400
Li       4.71981000       1.78640000      21.30071000      -0.23070600       0.12224100      -0.03449900
Li       7.88604000       1.55384000      21.30343000       0.04708300       0.16003000       0.06361000
Li       1.20620000       2.26178000      21.02282000      -0.31627700      -0.05939700       0.18827800
Li       3.69455000       7.68943000      18.52636000      -0.09490600      -0.15986800       0.09862600
Li       6.67167000       7.70446000      18.46750000       0.25300500      -0.13151200       0.16610000
Li       0.34857000       7.35191000      18.75724000       0.11823800       0.25771700      -0.01817000
Li       5.54091000      12.24066000      16.13611000      -0.37195700       0.24042600      -0.30293100
Li       8.99512000      12.37718000      16.23334000      -0.16261900       0.08451100      -0.16761900
Li       2.27795000      11.96983000      15.96802000       0.05706200       0.25225500      -0.04528600
Li       2.05058000      10.34055000      18.88043000      -0.05903100      -0.10274600      -0.24370100
Li       5.71120000      10.18222000      18.58055000      -0.12381600       0.25633800       0.13289000
Li       8.94451000      10.12833000      18.61960000       0.17831500       0.09055800       0.01314500
Li       4.13388000       9.57848000      20.80091000       0.04865900       0.11900300       0.13298800
Li       7.50062000       9.98890000      20.93522000      -0.24960900       0.48933300       0.11789300
Li       0.71641000       9.71623000      21.26997000      -0.10597700       0.02825700      -0.08080700
Li       3.36251000       4.24068000      20.70187000       0.21069300       0.13254900       0.03656500
Li       6.60140000       4.07350000      20.96491000       0.18010300       0.10963000      -0.24730500
Li       9.88222000       5.03544000      20.94461000       0.19393000      -0.15350600       0.21058500
Li       2.32352000       7.05441000      21.23448000      -0.12073300      -0.04561200      -0.19744500
Li       5.62330000       6.75402000      21.20707000      -0.13101900       0.16798100      -0.20827000
Li       8.50493000       7.66725000      20.82200000       0.21353000      -0.43245500      -0.14363600
144
Lattice="10.24247 0.0 0.0 0.0 13.305359 0.0 0.0 0.0 28.912436" Properties=species:S:1:pos:R:3:ref_forces:R:3 free_ref_energy=-417.86483545 ref_energy=-417.85103334 magmom=5.9176416 stress="0.004059939407149786 0.0007132422138511835 0.0001876696963970578 0.0007132422138511835 0.0007919538854376972 -4.725446559206215e-05 0.0001876696963970578 -4.725446559206215e-05 -0.001018233557287469" pbc="T T T"
Cu      10.09214000       0.10464000       7.41715000       0.57120200      -0.46046000       0.44092000
Cu       2.55974000      13.27229000       7.47465000      -0.47493800       0.31586000      -0.23049400
Cu       5.04146000      13.29669000       7.54213000       0.05885600       0.44335900      -0.18225300
Cu       7.61655000       0.03398000       7.47345000      -0.19854000       0.00507700       0.12710400
Cu       1.17635000       2.20301000       7.64186000       0.09998500       0.34501400      -0.17404000
Cu       3.77581000       2.33064000       7.40040000      -0.16949300      -0.17673500       0.52553500
Cu       6.41372000       2.23042000       7.45894000      -0.74158000       0.10661400      -0.09714100
Cu       8.86723000       2.20136000       7.45168000       0.11231500       0.52923300       0.08977500
Cu      10.04213000       4.45539000       7.63310000       0.17464000      -0.10474300      -0.17951600
Cu       2.30213000       4.54564000       7.56309000       0.21203500      -0.48455700      -0.04392900
Cu       4.95958000       4.54481000       7.53145000       0.10800600      -0.21100900      -0.17083200
Cu       7.48638000       4.50807000       7.42390000       0.17885200      -0.04778800       0.28319900
Cu       1.05062000       6.70466000       7.62046000      -0.24158900       0.18923000       0.05573500
Cu       3.47130000       6.76424000       7.58717000       0.77873600      -0.39231400      -0.02083400
Cu       6.19670000       6.72875000       7.71823000       0.26185200       0.03324500      -1.11619800
Cu       8.79616000       6.70836000       7.56735000      -0.24184300       0.02847900      -0.17151100
Cu       9.97162000       8.93478000       7.34658000       0.95976400      -0.14517100       0.51244000
Cu       2.39322000       8.88690000       7.67527000      -0.24372200       0.30231300      -0.17790900
Cu       4.89529000       8.82102000       7.49269000       0.35953800       0.41210100       0.06217000
Cu       7.66456000       9.15237000       7.18964000      -1.03722400      -0.73647200       0.65501800
Cu       1.14533000      11.04396000       7.39106000       0.09758700       0.29474200       0.46173100
Cu       3.82582000      11.05927000       7.52391000      -0.31899300      -0.03415700       0.15214000
Cu       6.35027000      11.21139000       7.56408000      -0.24109000      -0.29587000      -0.14113200
Cu       8.89134000      11.22097000       7.49544000       0.08540500      -0.01857200       0.17458900
Cu       1.25924000       0.76953000       9.61224000      -0.81460100       0.15695500      -0.16815100
Cu       3.69559000       0.75969000       9.55048000       0.06199100       0.59803300      -0.16649600
Cu       6.33012000       0.80954000       9.56170000      -0.42074800      -0.41443800       0.11382100
Cu       8.76277000       0.84909000       9.57590000       0.69560400      -0.80906800       0.29792800
Cu       9.98682000       2.99664000       9.73807000       0.87053700      -0.33053700      -0.68629100
Cu       2.28971000       3.08018000       9.75390000       0.60536400      -0.13075000      -0.74158500
Cu       5.02897000       2.97256000       9.57607000      -0.43990300       0.24163000      -0.37811100
Cu       7.54061000       2.96654000       9.51380000      -0.15078500       0.54731700       0.30904900
Cu       1.17802000       5.27194000       9.73097000      -0.60478500      -0.41861600      -0.18773900
Cu       3.71649000       5.18161000       9.48135000       0.10149000       0.09302200       0.91554500
Cu       6.37749000       5.28467000       9.62762000      -0.71334900      -0.38528400      -0.02768300
Cu       8.80847000       5.13607000       9.60513000       0.05017300       0.52767500       0.36010100
Cu       9.98036000       7.39764000       9.67361000       0.42375200      -0.08607100      -0.08684700
Cu       2.35144000       7.33247000       9.85580000       0.71990000       0.55134200      -1.30248400
Cu       4.96896000       7.45360000       9.59271000      -0.33306500      -0.10529700       0.71557000
Cu       7.55944000       7.47010000       9.59064000      -0.14964600       0.04055300       0.09550600
Cu       1.04070000       9.50028000       9.62775000       0.25172100       0.67889500      -0.42669000
Cu       3.71153000       9.59133000       9.72996000      -0.17038600       0.37964000      -0.66841800
Cu       6.24017000       9.64652000       9.50711000      -0.03772100      -0.03018700       0.24078000
Cu       8.77702000       9.64067000       9.59060000      -0.01884900       0.04837300      -0.20116400
Cu      10.12894000      11.88751000       9.66653000      -0.27831900       0.02484400      -0.65703600
Cu       2.41468000      11.90756000       9.46821000       0.01024600      -0.84642900       0.42014300
Cu       4.93430000      11.96191000       9.64879000       0.33391300      -0.42813100       0.05317500
Cu       7.54109000      11.77921000       9.66593000       0.19506400       0.56018700       0.18822500
Cu      10.10776000       1.44577000      11.74161000       0.04736400       0.05846900      -0.52917900
Cu       2.41699000       1.63719000      11.67149000      -0.11071500      -0.30335800       0.24598000
Cu       4.86820000       1.51070000      11.55074000       0.64069300       0.42229600       0.37153200
Cu       7.50342000       1.59361000      11.67020000       0.35794700      -0.39670300      -0.42460900
Cu       1.04329000       3.79194000      11.77502000       0.57036700      -0.23406400      -0.01419900
Cu       3.69005000       3.83547000      11.74513000      -0.30104200      -0.38180100      -0.27044600
Cu       6.14474000       3.84478000      11.59821000       0.50544900      -0.13588500      -0.11733000
Cu       8.88777000       3.67434000      11.71809000      -1.02673800       0.37909600       0.44051700
Cu      10.12522000       5.93687000      11.81507000      -0.35651300       0.46729200      -0.57882700
Cu       2.38375000       6.01198000      11.82468000       0.27417900      -0.37857900      -0.08978300
Cu       4.86081000       5.94771000      11.71586000       0.51072300       0.75617500      -0.17566100
Cu       7.53244000       5.87716000      11.74219000       0.10861500       0.30026300       0.11136000
Cu       1.15693000       8.14371000      11.66936000      -0.73187800       0.40065100       0.85543700
Cu       3.71959000       8.27384000      11.76480000       0.31536000      -0.22914500       0.31250200
Cu       6.39124000       8.14383000      11.66282000      -1.18493900       0.02956100       0.16255100
Cu       8.77894000       8.18277000      11.71372000       0.38088400      -0.04677800      -0.05840700
Cu      10.07649000      10.36210000      11.60732000      -0.08260000      -0.17429700       0.45799400
Cu       2.38959000      10.39322000      11.64219000      -0.11117500       0.25131100      -0.04324200
Cu       4.97820000      10.54028000      11.67561000       0.12815300      -0.43005800       0.10852200
Cu       7.49389000      10.35508000      11.83127000       0.18052100       0.17764800      -0.36723400
Cu       1.17626000      12.62159000      11.57902000       0.18385800      -0.07764400       0.69877900
Cu       3.63192000      12.76254000      11.76944000       0.22731200      -0.66502400      -0.53245500
Cu       6.36138000      12.64500000      11.72238000      -0.26100400       0.12491800      -0.06138400
Cu       8.93011000      12.53356000      11.89344000      -0.36102000      -0.04440000      -0.98090700
Cu       0.00299000       0.01353000      13.80005000       0.09349100      -0.25380500       0.12962700
Cu       2.56067000       0.21636000      13.86380000      -0.45296100      -0.54817000      -0.11776400
Cu       5.06272000       0.24366000      13.73387000       0.11116200      -0.25192900       0.31494300
Cu       7.70948000       0.07060000      13.76044000      -0.75408600      -0.11523300       0.51253400
Cu       1.18177000       2.25275000      13.72918000      -0.17405800       0.30858500       0.59797400
Cu       3.68588000       2.40776000      13.85652000       0.30117900       0.27603800      -0.34307500
Cu       6.23667000       2.42361000      13.45988000      -0.18280900      -0.63419700       1.21251200
Cu       8.91479000       2.15806000      13.76576000      -0.25308300       0.42421500       0.29777500
Cu      10.04125000       4.59773000      13.81883000       0.06219900      -0.51675900       0.54583600
Cu       2.37369000       4.55475000      13.78428000      -0.04400700      -0.00314300       0.53640900
Cu       4.90030000       4.62425000      13.87410000       0.32969400       0.01777200      -0.47468500
Cu       7.47868000       4.41661000      13.87098000       0.22426300       0.46156900      -0.25265800
Cu       1.22367000       6.80087000      13.88401000      -1.19411500      -0.61066300      -0.05005800
Cu       3.61562000       6.85656000      13.84394000       0.70293300       0.03017300       0.20868100
Cu       6.15932000       6.79124000      13.89695000      -0.09223700      -0.54042500      -0.33849500
Cu       8.81949000       6.77031000      13.74710000      -0.46029000      -0.73224000       0.66726100
Cu       9.93768000       8.85729000      13.84495000       0.34562900       0.18926900      -0.20762600
Cu       2.17792000       8.96373000      13.81337000       0.79101400       0.46355200       0.08501200
Cu       4.95095000       9.06705000      13.92256000      -0.34498600      -0.09144000      -0.39541800
Cu       7.39407000       8.80575000      13.90336000       0.35141400       0.79740300       0.22547800
Cu       0.99670000      11.07535000      13.68622000       0.29483800       0.45408700       0.11522400
Cu       3.61503000      11.17434000      13.65012000      -0.05368200       0.15700700       0.76834900
Cu       6.22314000      11.19644000      13.85403000      -0.02715200       0.26371400      -0.01458100
Cu       8.74597000      11.01719000      13.96549000      -0.10103600       0.08408200      -0.13701400
Li       5.63114000       3.29023000      15.74470000      -0.02098100      -0.21143900       0.20559300
Li       8.78575000       3.44575000      15.84795000      -0.15000400      -0.17233100       0.22223700
Li       1.33080000       3.59938000      16.00364000       0.28129400      -0.16344800      -0.14106400
Li       7.05117000       5.73160000      16.00221000       0.05050300      -0.07102500       0.16194200
Li       0.03171000       5.83676000      16.21213000      -0.09308900       0.25889300      -0.44820100
Li       3.85300000       5.27253000      15.97137000      -0.17332300       0.02917800       0.10961000
Li       5.52155000       8.01004000      16.08797000      -0.01181900      -0.16689300       0.01194400
Li       8.56074000       8.11884000      16.13701000       0.15516200       0.05230200      -0.26481400
Li       2.27712000       7.37030000      15.93059000      -0.17168900       0.05600800       0.42797600
Li       3.43656000       1.27129000      15.91514000       0.14670000       0.20148200       0.38338900
Li       7.01823000       1.00392000      16.21071000      -0.16909000       0.03850400      -0.47997500
Li       0.34427000       0.90490000      15.98746000       0.28127100       0.65782500       0.10371900
Li       0.62774000      12.74310000      18.68445000      -0.12770100       0.45294000      -0.22937400
Li       4.44376000      13.26737000      18.51439000      -0.02997800      -0.07768900       0.02810000
Li       7.45622000      13.13549000      18.60779000       0.12675100      -0.22533600       0.16639800
Li       2.47928000       2.17963000      18.50376000      -0.06496200       0.00791100      -0.00426400
Li       5.78464000       2.45039000      18.55317000       0.09565100      -0.02735800      -0.01478800
Li       9.49832000       2.13515000      18.45203000      -0.13210000       0.00066500      -0.10608000
Li       2.04426000       5.06304000      18.48982000      -0.12557500       0.09360200       0.18467900
Li       5.08175000       5.07600000      18.58609000      -0.02039800       0.24604200      -0.02369800
Li       8.91797000       5.06556000      18.48489000      -0.10931400       0.03628500       0.21242200
Li       3.44066000       9.57807000      15.99533000       0.03619100       0.51939200      -0.01802800
Li       6.77252000      10.63662000      16.30089000       0.53623400      -0.34059000      -0.23977000
Li       0.13040000      10.13019000      15.87353000       0.30270500      -0.09140900       0.36892300
Li       2.53980000      12.96939000      20.51611000      -0.01733900      -0.11859800       0.20095300
Li       6.00312000      13.08822000      21.21225000      -0.19372400      -0.29081800      -0.29709600
Li       9.19512000      12.92156000      21.05365000       0.07310200       0.11147200      -0.23650100
Li       4.07623000       1.99325000      20.90652000       0.06075500       0.38067600      -0.13286800
Li       7.49939000       2.08881000      20.79870000       0.14970600       0.24576500      -0.21860000
Li       0.60159000       2.28322000      20.84767000       0.19890900      -0.12308400      -0.10813900
Li       3.88353000       7.89598000      18.64909000       0.01863300      -0.08427600       0.07041800
Li       7.22029000       8.15934000      18.47701000      -0.08903500      -0.17356900       0.26166000
Li       0.58398000       7.70308000      18.50688000       0.01707800       0.10865200      -0.04764800
Li       4.84856000      12.15769000      15.94501000      -0.06691100       0.12992600      -0.24073300
Li       8.94070000      12.50089000      15.96441000      -0.18545100      -0.36522800       0.12872600